       N       E                     dE             d eps       ncg     rms          rms(c)
DAV:   1     0.782647937903E+04    0.78265E+04   -0.27150E+05 12096   0.105E+03
DAV:   2     0.100721336450E+04   -0.68193E+04   -0.58484E+04 14736   0.253E+02
DAV:   3    -0.739877475642E+03   -0.17471E+04   -0.17167E+04 17440   0.144E+02
DAV:   4    -0.903824847026E+03   -0.16395E+03   -0.15778E+03 19280   0.615E+01
DAV:   5    -0.910150876788E+03   -0.63260E+01   -0.58941E+01 20048   0.138E+01    0.126E+02
RMM:   6    -0.864133833825E+03    0.46017E+02   -0.28901E+03 14012   0.116E+02    0.107E+02
RMM:   7    -0.589937688286E+03    0.27420E+03   -0.68123E+02 12157   0.644E+01    0.491E+01
RMM:   8    -0.651233279328E+03   -0.61296E+02   -0.44741E+02 13261   0.416E+01    0.552E+01
RMM:   9    -0.605832679136E+03    0.45401E+02   -0.45763E+01 12932   0.163E+01    0.255E+01
RMM:  10    -0.639882643910E+03   -0.34050E+02   -0.27579E+01 12177   0.125E+01    0.181E+01
RMM:  11    -0.690784892869E+03   -0.50902E+02   -0.30307E+01 12352   0.101E+01    0.148E+01
RMM:  12    -0.733167647213E+03   -0.42383E+02   -0.21060E+01 12531   0.564E+00    0.968E+00
RMM:  13    -0.780374741923E+03   -0.47207E+02   -0.35310E+01 12820   0.752E+00    0.898E+00
RMM:  14    -0.792481727569E+03   -0.12107E+02   -0.69903E+00 12966   0.413E+00    0.103E+01
RMM:  15    -0.799886435265E+03   -0.74047E+01   -0.31090E+00 12398   0.216E+00    0.820E+00
RMM:  16    -0.811412544047E+03   -0.11526E+02   -0.63436E+00 12076   0.395E+00    0.879E+00
RMM:  17    -0.811297597420E+03    0.11495E+00   -0.69223E-01 13296   0.112E+00    0.425E+00
RMM:  18    -0.816756966634E+03   -0.54594E+01   -0.21604E+00 12377   0.180E+00    0.402E+00
RMM:  19    -0.820624104945E+03   -0.38671E+01   -0.86708E-01 12962   0.128E+00    0.321E+00
RMM:  20    -0.822791241684E+03   -0.21671E+01   -0.43096E-01 13341   0.859E-01    0.324E+00
RMM:  21    -0.823004971280E+03   -0.21373E+00   -0.77527E-02 14107   0.394E-01    0.324E+00
RMM:  22    -0.822956791270E+03    0.48180E-01   -0.10867E-02 15677   0.107E-01    0.316E+00
RMM:  23    -0.823196226899E+03   -0.23944E+00   -0.28985E-02 12711   0.160E-01    0.322E+00
RMM:  24    -0.824016361755E+03   -0.82013E+00   -0.20143E-01 12334   0.534E-01    0.270E+00
RMM:  25    -0.824498636972E+03   -0.48228E+00   -0.13521E-01 13693   0.477E-01    0.230E+00
RMM:  26    -0.824764725671E+03   -0.26609E+00   -0.27740E-02 14745   0.188E-01    0.213E+00
RMM:  27    -0.825302776591E+03   -0.53805E+00   -0.40377E-02 13401   0.196E-01    0.199E+00
RMM:  28    -0.825383936693E+03   -0.81160E-01   -0.20197E-02 13384   0.155E-01    0.192E+00
RMM:  29    -0.825448383955E+03   -0.64447E-01   -0.12847E-02 14234   0.891E-02    0.177E+00
RMM:  30    -0.825585974301E+03   -0.13759E+00   -0.34370E-02 13299   0.120E-01    0.140E+00
RMM:  31    -0.825807070546E+03   -0.22110E+00   -0.43068E-02 13285   0.169E-01    0.100E+00
RMM:  32    -0.826410807838E+03   -0.60374E+00   -0.43151E-02 12794   0.189E-01    0.645E-01
RMM:  33    -0.826889606670E+03   -0.47880E+00   -0.25377E-02 13302   0.173E-01    0.425E-01
RMM:  34    -0.827106262895E+03   -0.21666E+00   -0.86820E-03 13578   0.119E-01    0.715E-01
RMM:  35    -0.827248469433E+03   -0.14221E+00   -0.31425E-03 13855   0.662E-02    0.855E-01
RMM:  36    -0.827419534210E+03   -0.17106E+00   -0.26106E-03 12912   0.659E-02    0.402E-01
RMM:  37    -0.827740154954E+03   -0.32062E+00   -0.52905E-03 12491   0.857E-02    0.249E-01
RMM:  38    -0.828030311463E+03   -0.29016E+00   -0.68589E-03 12813   0.785E-02    0.416E-01
RMM:  39    -0.828134468681E+03   -0.10416E+00   -0.18331E-03 12756   0.545E-02    0.254E-01
RMM:  40    -0.828179059844E+03   -0.44591E-01   -0.13522E-03 12976   0.408E-02    0.116E-01
RMM:  41    -0.828219020666E+03   -0.39961E-01   -0.93985E-04 12685   0.346E-02    0.101E-01
RMM:  42    -0.828243889486E+03   -0.24869E-01   -0.47116E-04 12565   0.297E-02    0.102E-01
RMM:  43    -0.828263166771E+03   -0.19277E-01   -0.41266E-04 12161   0.230E-02    0.458E-02
RMM:  44    -0.828267088758E+03   -0.39220E-02   -0.15231E-04 11729   0.173E-02    0.334E-02
RMM:  45    -0.828268585184E+03   -0.14964E-02   -0.69041E-05 11408   0.119E-02    0.211E-02
RMM:  46    -0.828269631540E+03   -0.10464E-02   -0.58475E-05 11908   0.919E-03    0.162E-02
RMM:  47    -0.828269886414E+03   -0.25487E-03   -0.22474E-05 10676   0.744E-03    0.134E-02
RMM:  48    -0.828270064579E+03   -0.17817E-03   -0.16725E-05 10640   0.574E-03    0.707E-03
RMM:  49    -0.828270263990E+03   -0.19941E-03   -0.10658E-05  9809   0.503E-03    0.622E-03
RMM:  50    -0.828270442870E+03   -0.17888E-03   -0.74478E-06  9231   0.401E-03    0.558E-03
RMM:  51    -0.828270628915E+03   -0.18604E-03   -0.38114E-06  8293   0.289E-03    0.449E-03
RMM:  52    -0.828270805428E+03   -0.17651E-03   -0.20324E-06  7854   0.217E-03    0.230E-03
RMM:  53    -0.828270906470E+03   -0.10104E-03   -0.96157E-07  7495   0.188E-03    0.279E-03
RMM:  54    -0.828270985404E+03   -0.78934E-04   -0.69006E-07  7428   0.157E-03    0.257E-03
RMM:  55    -0.828271086086E+03   -0.10068E-03   -0.94635E-07  7531   0.134E-03    0.110E-03
RMM:  56    -0.828271134521E+03   -0.48436E-04   -0.51665E-07  7017   0.117E-03    0.123E-03
RMM:  57    -0.828271155267E+03   -0.20746E-04   -0.31479E-07  6731   0.928E-04    0.127E-03
RMM:  58    -0.828271167949E+03   -0.12681E-04   -0.22776E-07  6430   0.784E-04    0.102E-03
RMM:  59    -0.828271176062E+03   -0.81132E-05   -0.20464E-07  6062   0.660E-04    0.588E-04
RMM:  60    -0.828271181572E+03   -0.55102E-05   -0.18572E-07  5571   0.605E-04
   1 F= -.83728692E+03 E0= -.83723431E+03  d E =-.837287E+03  mag=     0.1039
       N       E                     dE             d eps       ncg     rms          rms(c)
DAV:   1    -0.828267875503E+03    0.33006E-02   -0.29883E+00 13136   0.175E+00    0.179E+00
RMM:   2    -0.828310352740E+03   -0.42477E-01   -0.17960E-01 14266   0.565E-01    0.130E+00
RMM:   3    -0.828331295252E+03   -0.20943E-01   -0.62841E-02 13049   0.518E-01    0.209E+00
RMM:   4    -0.828281970656E+03    0.49325E-01   -0.39036E-02 12669   0.427E-01    0.596E-01
RMM:   5    -0.828275345335E+03    0.66253E-02   -0.64682E-03 14038   0.105E-01    0.364E-01
RMM:   6    -0.828271072943E+03    0.42724E-02   -0.50485E-03 12937   0.102E-01    0.276E-01
RMM:   7    -0.828270308582E+03    0.76436E-03   -0.19794E-03 13200   0.947E-02    0.376E-01
RMM:   8    -0.828270597028E+03   -0.28845E-03   -0.62825E-04 12951   0.430E-02    0.123E-01
RMM:   9    -0.828271607486E+03   -0.10105E-02   -0.76871E-04 13175   0.419E-02    0.964E-02
RMM:  10    -0.828271714928E+03   -0.10744E-03   -0.19242E-04 12235   0.310E-02    0.430E-02
RMM:  11    -0.828272118760E+03   -0.40383E-03   -0.83749E-05 10968   0.147E-02    0.287E-02
RMM:  12    -0.828272453619E+03   -0.33486E-03   -0.40708E-05 10992   0.115E-02    0.318E-02
RMM:  13    -0.828272622687E+03   -0.16907E-03   -0.18537E-05 10188   0.632E-03    0.100E-02
RMM:  14    -0.828272732269E+03   -0.10958E-03   -0.58783E-06  9329   0.454E-03    0.109E-02
RMM:  15    -0.828272917542E+03   -0.18527E-03   -0.47141E-06  8788   0.347E-03    0.592E-03
RMM:  16    -0.828272997388E+03   -0.79846E-04   -0.26258E-06  7996   0.314E-03    0.531E-03
RMM:  17    -0.828273055951E+03   -0.58563E-04   -0.22884E-06  7846   0.250E-03    0.233E-03
RMM:  18    -0.828273082357E+03   -0.26406E-04   -0.98413E-07  7337   0.184E-03    0.200E-03
RMM:  19    -0.828273099349E+03   -0.16992E-04   -0.65518E-07  6992   0.155E-03    0.161E-03
RMM:  20    -0.828273123052E+03   -0.23703E-04   -0.78030E-07  7088   0.117E-03    0.118E-03
RMM:  21    -0.828273135272E+03   -0.12219E-04   -0.67434E-07  6927   0.111E-03    0.106E-03
RMM:  22    -0.828273139741E+03   -0.44698E-05   -0.36198E-07  6460   0.941E-04    0.981E-04
RMM:  23    -0.828273145956E+03   -0.62147E-05   -0.37711E-07  5892   0.725E-04    0.670E-04
RMM:  24    -0.828273149853E+03   -0.38965E-05   -0.26785E-07  5873   0.710E-04    0.345E-04
RMM:  25    -0.828273152685E+03   -0.28322E-05   -0.28448E-07  5570   0.582E-04    0.312E-04
RMM:  26    -0.828273153543E+03   -0.85804E-06   -0.12195E-07  5194   0.571E-04
   2 F= -.83729097E+03 E0= -.83723861E+03  d E =-.405470E-02  mag=     0.0866
       N       E                     dE             d eps       ncg     rms          rms(c)
DAV:   1    -0.828277204958E+03   -0.40523E-02   -0.51327E-01 12720   0.722E-01    0.690E-01
RMM:   2    -0.828284066553E+03   -0.68616E-02   -0.30400E-02 14281   0.242E-01    0.548E-01
RMM:   3    -0.828285776220E+03   -0.17097E-02   -0.96799E-03 13094   0.204E-01    0.692E-01
RMM:   4    -0.828278818558E+03    0.69577E-02   -0.63353E-03 12704   0.188E-01    0.305E-01
RMM:   5    -0.828278124184E+03    0.69437E-03   -0.10186E-03 13367   0.494E-02    0.161E-01
RMM:   6    -0.828278055753E+03    0.68431E-04   -0.45336E-04 12676   0.438E-02    0.812E-02
RMM:   7    -0.828278121824E+03   -0.66071E-04   -0.32971E-04 13254   0.320E-02    0.884E-02
RMM:   8    -0.828278063110E+03    0.58715E-04   -0.10044E-04 11735   0.233E-02    0.535E-02
RMM:   9    -0.828277998590E+03    0.64520E-04   -0.29804E-05 10880   0.924E-03    0.193E-02
RMM:  10    -0.828277967220E+03    0.31370E-04   -0.10737E-05  9854   0.671E-03    0.182E-02
RMM:  11    -0.828277981097E+03   -0.13877E-04   -0.10294E-05  9475   0.475E-03    0.885E-03
RMM:  12    -0.828277990319E+03   -0.92214E-05   -0.62655E-06  9544   0.464E-03    0.633E-03
RMM:  13    -0.828278004428E+03   -0.14109E-04   -0.13530E-06  7534   0.228E-03    0.230E-03
RMM:  14    -0.828278021553E+03   -0.17125E-04   -0.65664E-07  7266   0.185E-03    0.190E-03
RMM:  15    -0.828278030264E+03   -0.87107E-05   -0.36097E-07  6815   0.122E-03    0.142E-03
RMM:  16    -0.828278048726E+03   -0.18462E-04   -0.35290E-07  6706   0.978E-04    0.101E-03
RMM:  17    -0.828278060746E+03   -0.12021E-04   -0.25258E-07  6440   0.878E-04    0.873E-04
RMM:  18    -0.828278067875E+03   -0.71287E-05   -0.15436E-07  6033   0.701E-04    0.627E-04
RMM:  19    -0.828278086422E+03   -0.18547E-04   -0.34881E-07  6134   0.636E-04    0.588E-04
RMM:  20    -0.828278094981E+03   -0.85587E-05   -0.19805E-07  5908   0.662E-04    0.469E-04
RMM:  21    -0.828278103605E+03   -0.86243E-05   -0.23893E-07  5470   0.517E-04    0.302E-04
RMM:  22    -0.828278107945E+03   -0.43405E-05   -0.14215E-07  5300   0.535E-04    0.272E-04
RMM:  23    -0.828278112277E+03   -0.43317E-05   -0.12684E-07  5000   0.435E-04    0.210E-04
RMM:  24    -0.828278116487E+03   -0.42096E-05   -0.15702E-07  5081   0.477E-04    0.204E-04
RMM:  25    -0.828278117077E+03   -0.59045E-06   -0.78464E-08  4426   0.429E-04
   3 F= -.83729510E+03 E0= -.83724260E+03  d E =-.817768E-02  mag=     0.0935
       N       E                     dE             d eps       ncg     rms          rms(c)
DAV:   1    -0.828280174875E+03   -0.20584E-02   -0.18125E+00 12744   0.107E+00    0.890E-01
RMM:   2    -0.828289905905E+03   -0.97310E-02   -0.87493E-02 14463   0.263E-01    0.452E-01
RMM:   3    -0.828299800965E+03   -0.98951E-02   -0.13333E-02 13281   0.204E-01    0.858E-01
RMM:   4    -0.828287987336E+03    0.11814E-01   -0.56895E-03 13052   0.176E-01    0.339E-01
RMM:   5    -0.828287013200E+03    0.97414E-03   -0.71952E-04 13262   0.454E-02    0.229E-01
RMM:   6    -0.828286461590E+03    0.55161E-03   -0.96968E-04 14088   0.192E-02    0.286E-01
RMM:   7    -0.828286273582E+03    0.18801E-03   -0.19140E-04 12329   0.214E-02    0.164E-01
RMM:   8    -0.828286324989E+03   -0.51406E-04   -0.42588E-04 12855   0.216E-02    0.626E-02
RMM:   9    -0.828286340768E+03   -0.15780E-04   -0.86282E-05 11150   0.212E-02    0.404E-02
RMM:  10    -0.828286420586E+03   -0.79818E-04   -0.17456E-05 10138   0.796E-03    0.414E-02
RMM:  11    -0.828286467244E+03   -0.46659E-04   -0.12357E-05 10037   0.787E-03    0.352E-02
RMM:  12    -0.828286540022E+03   -0.72778E-04   -0.10188E-05  9580   0.543E-03    0.138E-02
RMM:  13    -0.828286585074E+03   -0.45052E-04   -0.40802E-06  8816   0.411E-03    0.749E-03
RMM:  14    -0.828286604349E+03   -0.19275E-04   -0.14507E-06  7495   0.297E-03    0.346E-03
RMM:  15    -0.828286632873E+03   -0.28524E-04   -0.56295E-07  7392   0.140E-03    0.336E-03
RMM:  16    -0.828286673251E+03   -0.40378E-04   -0.74847E-07  7228   0.137E-03    0.220E-03
RMM:  17    -0.828286705070E+03   -0.31819E-04   -0.61900E-07  6973   0.112E-03    0.222E-03
RMM:  18    -0.828286717730E+03   -0.12661E-04   -0.26809E-07  6466   0.816E-04    0.195E-03
RMM:  19    -0.828286734091E+03   -0.16360E-04   -0.29672E-07  6172   0.754E-04    0.148E-03
RMM:  20    -0.828286760541E+03   -0.26451E-04   -0.51674E-07  6287   0.689E-04    0.729E-04
RMM:  21    -0.828286777430E+03   -0.16888E-04   -0.41411E-07  6224   0.704E-04    0.531E-04
RMM:  22    -0.828286785507E+03   -0.80770E-05   -0.19393E-07  5596   0.567E-04    0.390E-04
RMM:  23    -0.828286792561E+03   -0.70539E-05   -0.16308E-07  5288   0.492E-04    0.330E-04
RMM:  24    -0.828286803891E+03   -0.11330E-04   -0.32767E-07  5738   0.522E-04    0.276E-04
RMM:  25    -0.828286808668E+03   -0.47766E-05   -0.17259E-07  5302   0.525E-04    0.209E-04
RMM:  26    -0.828286810122E+03   -0.14541E-05   -0.89217E-08  4401   0.425E-04    0.147E-04
RMM:  27    -0.828286811147E+03   -0.10255E-05   -0.60479E-08  3876   0.384E-04    0.971E-05
RMM:  28    -0.828286812447E+03   -0.13000E-05   -0.61380E-08  4140   0.365E-04    0.964E-05
RMM:  29    -0.828286812854E+03   -0.40694E-06   -0.42499E-08  3988   0.368E-04
   4 F= -.83730296E+03 E0= -.83725062E+03  d E =-.786331E-02  mag=     0.0828
       N       E                     dE             d eps       ncg     rms          rms(c)
DAV:   1    -0.828286865810E+03   -0.53363E-04   -0.23464E-01 12888   0.386E-01    0.329E-01
RMM:   2    -0.828288129353E+03   -0.12635E-02   -0.11416E-02 14546   0.945E-02    0.156E-01
RMM:   3    -0.828289535266E+03   -0.14059E-02   -0.16859E-03 13114   0.743E-02    0.337E-01
RMM:   4    -0.828287744856E+03    0.17904E-02   -0.69245E-04 12968   0.613E-02    0.865E-02
RMM:   5    -0.828287703273E+03    0.41583E-04   -0.68388E-05 11698   0.150E-02    0.716E-02
RMM:   6    -0.828287659899E+03    0.43373E-04   -0.63303E-05 11951   0.605E-03    0.500E-02
RMM:   7    -0.828287618406E+03    0.41493E-04   -0.94779E-05 11386   0.763E-03    0.224E-02
RMM:   8    -0.828287630810E+03   -0.12404E-04   -0.68008E-06  9267   0.542E-03    0.146E-02
RMM:   9    -0.828287636750E+03   -0.59407E-05   -0.33302E-06  8806   0.453E-03    0.114E-02
RMM:  10    -0.828287647784E+03   -0.11034E-04   -0.35689E-06  7863   0.316E-03    0.102E-02
RMM:  11    -0.828287653126E+03   -0.53413E-05   -0.11776E-06  7372   0.281E-03    0.667E-03
RMM:  12    -0.828287660399E+03   -0.72734E-05   -0.75897E-07  7399   0.174E-03    0.168E-03
RMM:  13    -0.828287667897E+03   -0.74976E-05   -0.26521E-07  6916   0.989E-04    0.147E-03
RMM:  14    -0.828287674651E+03   -0.67540E-05   -0.20965E-07  6458   0.915E-04    0.116E-03
RMM:  15    -0.828287689867E+03   -0.15217E-04   -0.29971E-07  6104   0.647E-04    0.721E-04
RMM:  16    -0.828287696418E+03   -0.65510E-05   -0.13669E-07  5757   0.574E-04    0.660E-04
RMM:  17    -0.828287699074E+03   -0.26558E-05   -0.85101E-08  5185   0.450E-04    0.592E-04
RMM:  18    -0.828287702794E+03   -0.37195E-05   -0.68782E-08  4627   0.388E-04    0.483E-04
RMM:  19    -0.828287709923E+03   -0.71294E-05   -0.12862E-07  4914   0.397E-04    0.342E-04
RMM:  20    -0.828287717308E+03   -0.73853E-05   -0.17230E-07  5107   0.419E-04    0.298E-04
RMM:  21    -0.828287719705E+03   -0.23971E-05   -0.79319E-08  4281   0.392E-04    0.207E-04
RMM:  22    -0.828287721470E+03   -0.17648E-05   -0.56638E-08  3512   0.340E-04    0.151E-04
RMM:  23    -0.828287723523E+03   -0.20534E-05   -0.57355E-08  3730   0.348E-04    0.131E-04
RMM:  24    -0.828287725894E+03   -0.23707E-05   -0.88974E-08  4337   0.368E-04    0.145E-04
RMM:  25    -0.828287726372E+03   -0.47759E-06   -0.47311E-08  3851   0.369E-04
   5 F= -.83730354E+03 E0= -.83725125E+03  d E =-.844593E-02  mag=     0.0784
       N       E                     dE             d eps       ncg     rms          rms(c)
DAV:   1    -0.828284722089E+03    0.30038E-02   -0.17938E+00 12308   0.133E+00    0.635E-01
RMM:   2    -0.828290501436E+03   -0.57793E-02   -0.74349E-02 14503   0.306E-01    0.264E-01
RMM:   3    -0.828291659444E+03   -0.11580E-02   -0.61472E-03 13918   0.126E-01    0.359E-01
RMM:   4    -0.828290211012E+03    0.14484E-02   -0.15436E-03 13247   0.664E-02    0.200E-01
RMM:   5    -0.828290021430E+03    0.18958E-03   -0.40275E-04 12972   0.386E-02    0.165E-01
RMM:   6    -0.828289800410E+03    0.22102E-03   -0.10528E-03 13987   0.243E-02    0.150E-01
RMM:   7    -0.828289808657E+03   -0.82467E-05   -0.31497E-04 12241   0.303E-02    0.843E-02
RMM:   8    -0.828289767927E+03    0.40730E-04   -0.16805E-04 13063   0.268E-02    0.288E-02
RMM:   9    -0.828289769194E+03   -0.12665E-05   -0.23895E-05 10848   0.853E-03    0.271E-02
RMM:  10    -0.828289787922E+03   -0.18728E-04   -0.29170E-05  9815   0.687E-03    0.292E-02
RMM:  11    -0.828289814258E+03   -0.26336E-04   -0.39293E-05 10221   0.804E-03    0.183E-02
RMM:  12    -0.828289822563E+03   -0.83046E-05   -0.56208E-06  9398   0.554E-03    0.566E-03
RMM:  13    -0.828289827575E+03   -0.50126E-05   -0.13208E-06  7582   0.240E-03    0.350E-03
RMM:  14    -0.828289835278E+03   -0.77025E-05   -0.85706E-07  7478   0.199E-03    0.186E-03
RMM:  15    -0.828289849902E+03   -0.14624E-04   -0.70332E-07  7318   0.131E-03    0.208E-03
RMM:  16    -0.828289859060E+03   -0.91578E-05   -0.36179E-07  6984   0.130E-03    0.130E-03
RMM:  17    -0.828289864832E+03   -0.57721E-05   -0.25826E-07  6368   0.820E-04    0.798E-04
RMM:  18    -0.828289869098E+03   -0.42660E-05   -0.21817E-07  6190   0.808E-04    0.643E-04
RMM:  19    -0.828289873951E+03   -0.48529E-05   -0.17698E-07  5704   0.618E-04    0.509E-04
RMM:  20    -0.828289884770E+03   -0.10819E-04   -0.28546E-07  5810   0.610E-04    0.543E-04
RMM:  21    -0.828289890881E+03   -0.61113E-05   -0.19352E-07  5442   0.555E-04    0.331E-04
RMM:  22    -0.828289892316E+03   -0.14348E-05   -0.82496E-08  4980   0.466E-04    0.262E-04
RMM:  23    -0.828289894229E+03   -0.19130E-05   -0.65315E-08  4575   0.398E-04    0.171E-04
RMM:  24    -0.828289897574E+03   -0.33450E-05   -0.82942E-08  4621   0.392E-04    0.174E-04
RMM:  25    -0.828289900193E+03   -0.26184E-05   -0.10540E-07  4916   0.418E-04    0.164E-04
RMM:  26    -0.828289900568E+03   -0.37583E-06   -0.53808E-08  4117   0.383E-04
   6 F= -.83730660E+03 E0= -.83725442E+03  d E =-.305504E-02  mag=     0.0732
       N       E                     dE             d eps       ncg     rms          rms(c)
DAV:   1    -0.828290059350E+03   -0.15916E-03   -0.64769E-02 12840   0.253E-01    0.125E-01
RMM:   2    -0.828290266827E+03   -0.20748E-03   -0.26507E-03 14543   0.554E-02    0.501E-02
RMM:   3    -0.828290326502E+03   -0.59675E-04   -0.20365E-04 13532   0.224E-02    0.845E-02
RMM:   4    -0.828290254286E+03    0.72216E-04   -0.55971E-05 11349   0.131E-02    0.371E-02
RMM:   5    -0.828290251013E+03    0.32724E-05   -0.18679E-05 10345   0.924E-03    0.319E-02
RMM:   6    -0.828290247761E+03    0.32519E-05   -0.39089E-05 11359   0.834E-03    0.190E-02
RMM:   7    -0.828290243959E+03    0.38021E-05   -0.12673E-05  9478   0.516E-03    0.105E-02
RMM:   8    -0.828290241892E+03    0.20671E-05   -0.30114E-06  8484   0.434E-03    0.587E-03
RMM:   9    -0.828290240637E+03    0.12553E-05   -0.76733E-07  7405   0.207E-03    0.446E-03
RMM:  10    -0.828290239621E+03    0.10154E-05   -0.16084E-06  7521   0.202E-03    0.480E-03
RMM:  11    -0.828290238981E+03    0.64031E-06   -0.23773E-06  7541   0.197E-03
   7 F= -.83730677E+03 E0= -.83725457E+03  d E =-.322892E-02  mag=     0.0737
       N       E                     dE             d eps       ncg     rms          rms(c)
DAV:   1    -0.828291263105E+03   -0.10235E-02   -0.42381E-01 12976   0.529E-01    0.252E-01
RMM:   2    -0.828292693824E+03   -0.14307E-02   -0.16418E-02 14113   0.110E-01    0.114E-01
RMM:   3    -0.828292833832E+03   -0.14001E-03   -0.11706E-03 13224   0.433E-02    0.147E-01
RMM:   4    -0.828292670926E+03    0.16291E-03   -0.27745E-04 11732   0.226E-02    0.807E-02
RMM:   5    -0.828292651144E+03    0.19782E-04   -0.10261E-04 10879   0.124E-02    0.721E-02
RMM:   6    -0.828292621812E+03    0.29331E-04   -0.10973E-04 11424   0.119E-02    0.392E-02
RMM:   7    -0.828292628543E+03   -0.67311E-05   -0.78941E-05 11267   0.777E-03    0.219E-02
RMM:   8    -0.828292627113E+03    0.14306E-05   -0.43461E-06  8887   0.458E-03    0.169E-02
RMM:   9    -0.828292626468E+03    0.64509E-06   -0.29502E-06  8173   0.352E-03
   8 F= -.83731005E+03 E0= -.83725775E+03  d E =-.328171E-02  mag=     0.0730
       N       E                     dE             d eps       ncg     rms          rms(c)
DAV:   1    -0.828285139290E+03    0.74878E-02   -0.38231E+00 12556   0.159E+00    0.766E-01
RMM:   2    -0.828298319749E+03   -0.13180E-01   -0.15191E-01 14036   0.371E-01    0.330E-01
RMM:   3    -0.828299998800E+03   -0.16791E-02   -0.11848E-02 13120   0.183E-01    0.431E-01
RMM:   4    -0.828298336860E+03    0.16619E-02   -0.35765E-03 12992   0.105E-01    0.267E-01
RMM:   5    -0.828298058408E+03    0.27845E-03   -0.51398E-04 14271   0.295E-02    0.232E-01
RMM:   6    -0.828297625989E+03    0.43242E-03   -0.14673E-03 13945   0.200E-02    0.122E-01
RMM:   7    -0.828297692730E+03   -0.66740E-04   -0.13354E-03 13571   0.285E-02    0.616E-02
RMM:   8    -0.828297684235E+03    0.84954E-05   -0.58541E-05 10675   0.147E-02    0.484E-02
RMM:   9    -0.828297679845E+03    0.43896E-05   -0.54648E-05 10387   0.105E-02    0.421E-02
RMM:  10    -0.828297682912E+03   -0.30666E-05   -0.17405E-04 11076   0.125E-02    0.273E-02
RMM:  11    -0.828297685012E+03   -0.21003E-05   -0.30785E-05 10300   0.996E-03    0.105E-02
RMM:  12    -0.828297686411E+03   -0.13989E-05   -0.31954E-06  8003   0.329E-03    0.505E-03
RMM:  13    -0.828297694488E+03   -0.80771E-05   -0.27728E-06  7603   0.200E-03    0.384E-03
RMM:  14    -0.828297704475E+03   -0.99873E-05   -0.91114E-07  7387   0.174E-03    0.342E-03
RMM:  15    -0.828297720861E+03   -0.16386E-04   -0.58213E-07  6995   0.128E-03    0.200E-03
RMM:  16    -0.828297733436E+03   -0.12575E-04   -0.72350E-07  6926   0.114E-03    0.124E-03
RMM:  17    -0.828297739188E+03   -0.57519E-05   -0.22564E-07  6166   0.846E-04    0.942E-04
RMM:  18    -0.828297745369E+03   -0.61809E-05   -0.13464E-07  5827   0.616E-04    0.779E-04
RMM:  19    -0.828297757064E+03   -0.11696E-04   -0.24628E-07  5859   0.583E-04    0.685E-04
RMM:  20    -0.828297765616E+03   -0.85520E-05   -0.24172E-07  5872   0.590E-04    0.470E-04
RMM:  21    -0.828297771988E+03   -0.63715E-05   -0.25224E-07  5588   0.530E-04    0.401E-04
RMM:  22    -0.828297774228E+03   -0.22401E-05   -0.11381E-07  5171   0.500E-04    0.339E-04
RMM:  23    -0.828297776169E+03   -0.19414E-05   -0.83847E-08  4414   0.397E-04    0.253E-04
RMM:  24    -0.828297778168E+03   -0.19987E-05   -0.89639E-08  4476   0.411E-04    0.150E-04
RMM:  25    -0.828297778780E+03   -0.61146E-06   -0.61369E-08  4120   0.390E-04
   9 F= -.83731785E+03 E0= -.83726562E+03  d E =-.110799E-01  mag=     0.0677
       N       E                     dE             d eps       ncg     rms          rms(c)
DAV:   1    -0.828247143705E+03    0.50634E-01   -0.15237E+01 12320   0.318E+00    0.157E+00
RMM:   2    -0.828301345660E+03   -0.54202E-01   -0.61971E-01 13912   0.800E-01    0.674E-01
RMM:   3    -0.828311580236E+03   -0.10235E-01   -0.59017E-02 13119   0.432E-01    0.966E-01
RMM:   4    -0.828301576740E+03    0.10003E-01   -0.17931E-02 13115   0.241E-01    0.540E-01
RMM:   5    -0.828300476290E+03    0.11004E-02   -0.28391E-03 14370   0.746E-02    0.467E-01
RMM:   6    -0.828299450814E+03    0.10255E-02   -0.33709E-03 15440   0.308E-02    0.317E-01
RMM:   7    -0.828299044968E+03    0.40585E-03   -0.57329E-03 13508   0.679E-02    0.126E-01
RMM:   8    -0.828298983236E+03    0.61732E-04   -0.50259E-04 12662   0.387E-02    0.928E-02
RMM:   9    -0.828298894710E+03    0.88526E-04   -0.16040E-04 11700   0.267E-02    0.858E-02
RMM:  10    -0.828298790341E+03    0.10437E-03   -0.38336E-04 12205   0.240E-02    0.695E-02
RMM:  11    -0.828298745404E+03    0.44936E-04   -0.17809E-04 11584   0.221E-02    0.203E-02
RMM:  12    -0.828298803822E+03   -0.58418E-04   -0.36457E-05 10565   0.771E-03    0.100E-02
RMM:  13    -0.828298846851E+03   -0.43029E-04   -0.36856E-06  8636   0.382E-03    0.690E-03
RMM:  14    -0.828298885918E+03   -0.39066E-04   -0.15855E-06  7569   0.280E-03    0.591E-03
RMM:  15    -0.828298964239E+03   -0.78322E-04   -0.20604E-06  7635   0.257E-03    0.312E-03
RMM:  16    -0.828299011504E+03   -0.47264E-04   -0.14274E-06  7515   0.199E-03    0.287E-03
RMM:  17    -0.828299031186E+03   -0.19682E-04   -0.65715E-07  7132   0.163E-03    0.136E-03
RMM:  18    -0.828299053625E+03   -0.22439E-04   -0.48380E-07  6502   0.956E-04    0.130E-03
RMM:  19    -0.828299074735E+03   -0.21110E-04   -0.35754E-07  6346   0.101E-03    0.101E-03
RMM:  20    -0.828299124337E+03   -0.49602E-04   -0.13164E-06  7237   0.882E-04    0.739E-04
RMM:  21    -0.828299138069E+03   -0.13731E-04   -0.45988E-07  6658   0.966E-04    0.619E-04
RMM:  22    -0.828299145854E+03   -0.77852E-05   -0.29134E-07  5903   0.609E-04    0.484E-04
RMM:  23    -0.828299152237E+03   -0.63829E-05   -0.17715E-07  5772   0.600E-04    0.490E-04
RMM:  24    -0.828299157746E+03   -0.55096E-05   -0.20635E-07  5721   0.535E-04    0.342E-04
RMM:  25    -0.828299161077E+03   -0.33302E-05   -0.15501E-07  5435   0.538E-04    0.183E-04
RMM:  26    -0.828299162202E+03   -0.11253E-05   -0.92011E-08  4735   0.451E-04    0.146E-04
RMM:  27    -0.828299163034E+03   -0.83200E-06   -0.60958E-08  3888   0.380E-04
  10 F= -.83732437E+03 E0= -.83727207E+03  d E =-.176036E-01  mag=     0.0565
       N       E                     dE             d eps       ncg     rms          rms(c)
DAV:   1    -0.828298730006E+03    0.43220E-03   -0.12300E+00 12692   0.958E-01    0.504E-01
RMM:   2    -0.828302986101E+03   -0.42561E-02   -0.49546E-02 14163   0.207E-01    0.176E-01
RMM:   3    -0.828303423249E+03   -0.43715E-03   -0.30715E-03 14037   0.753E-02    0.207E-01
RMM:   4    -0.828302989126E+03    0.43412E-03   -0.75314E-04 12651   0.338E-02    0.153E-01
RMM:   5    -0.828302910999E+03    0.78127E-04   -0.17536E-04 12251   0.245E-02    0.133E-01
RMM:   6    -0.828302754850E+03    0.15615E-03   -0.79677E-04 13223   0.211E-02    0.536E-02
RMM:   7    -0.828302738341E+03    0.16510E-04   -0.26790E-04 13005   0.172E-02    0.323E-02
RMM:   8    -0.828302728756E+03    0.95851E-05   -0.17146E-05 10259   0.660E-03    0.276E-02
RMM:   9    -0.828302716877E+03    0.11879E-04   -0.16640E-05  9428   0.556E-03    0.235E-02
RMM:  10    -0.828302703064E+03    0.13812E-04   -0.99562E-05 10726   0.725E-03    0.139E-02
RMM:  11    -0.828302703012E+03    0.52256E-07   -0.14745E-05  9202   0.585E-03    0.707E-03
