 vasp.5.4.4.18Apr17-6-g9f103f2a35 (build Apr 28 2017 10:40:22) complex          
  
 executed on Intel-16.0.3.210-OMP date 2019.11.13  13:06:26
 running on   32 total cores
 distrk:  each k-point on   32 cores,    1 groups
 distr:  one band on NCORES_PER_BAND=  32 cores,    1 groups


--------------------------------------------------------------------------------------------------------


 INCAR:
 POTCAR:    PAW_PBE C 08Apr2002                   
 POTCAR:    PAW_PBE Al 04Jan2001                  
 POTCAR:    PAW_PBE S 06Sep2000                   
 POTCAR:    PAW_PBE Cl 06Sep2000                  
 POTCAR:    PAW_PBE Cu 22Jun2005                  

 ----------------------------------------------------------------------------- 
|                                                                             |
|           W    W    AA    RRRRR   N    N  II  N    N   GGGG   !!!           |
|           W    W   A  A   R    R  NN   N  II  NN   N  G    G  !!!           |
|           W    W  A    A  R    R  N N  N  II  N N  N  G       !!!           |
|           W WW W  AAAAAA  RRRRR   N  N N  II  N  N N  G  GGG   !            |
|           WW  WW  A    A  R   R   N   NN  II  N   NN  G    G                |
|           W    W  A    A  R    R  N    N  II  N    N   GGGG   !!!           |
|                                                                             |
|      For optimal performance we recommend to set                            |
|        NCORE= 4 - approx SQRT( number of cores)                             |
|      NCORE specifies how many cores store one orbital (NPAR=cpu/NCORE).     |
|      This setting can  greatly improve the performance of VASP for DFT.     |
|      The default,   NCORE=1            might be grossly inefficient         |
|      on modern multi-core architectures or massively parallel machines.     |
|      Do your own testing !!!!                                               |
|      Unfortunately you need to use the default for GW and RPA calculations. |
|      (for HF NCORE is supported but not extensively tested yet)             |
|                                                                             |
 ----------------------------------------------------------------------------- 

 POTCAR:    PAW_PBE C 08Apr2002                   
   VRHFIN =C: s2p2                                                              
   LEXCH  = PE                                                                  
   EATOM  =   147.1560 eV,   10.8157 Ry                                         
                                                                                
   TITEL  = PAW_PBE C 08Apr2002                                                 
   LULTRA =        F    use ultrasoft PP ?                                      
   IUNSCR =        1    unscreen: 0-lin 1-nonlin 2-no                           
   RPACOR =    1.200    partial core radius                                     
   POMASS =   12.011; ZVAL   =    4.000    mass and valenz                      
   RCORE  =    1.500    outmost cutoff radius                                   
   RWIGS  =    1.630; RWIGS  =    0.863    wigner-seitz radius (au A)           
   ENMAX  =  400.000; ENMIN  =  300.000 eV                                      
   ICORE  =        2    local potential                                         
   LCOR   =        T    correct aug charges                                     
   LPAW   =        T    paw PP                                                  
   EAUG   =  644.873                                                            
   DEXC   =    0.000                                                            
   RMAX   =    1.529    core radius for proj-oper                               
   RAUG   =    1.300    factor for augmentation sphere                          
   RDEP   =    1.501    radius for radial grids                                 
   RDEPT  =    1.300    core radius for aug-charge                              
                                                                                
   Atomic configuration                                                         
    4 entries                                                                   
     n  l   j            E        occ.                                          
     1  0  0.50      -273.3789   2.0000                                         
     2  0  0.50       -13.7508   2.0000                                         
     2  1  0.50        -5.2854   2.0000                                         
     3  2  1.50        -5.4423   0.0000                                         
   Description                                                                  
     l       E           TYP  RCUT    TYP  RCUT                                 
     0    -13.7508458     23  1.200                                             
     0     -8.2022199     23  1.200                                             
     1     -5.2854383     23  1.500                                             
     1     34.0145650     23  1.500                                             
     2     -5.4423304      7  1.500                                             
  local pseudopotential read in
  partial core-charges read in
  partial kinetic energy density read in
  atomic valenz-charges read in
  non local Contribution for L=           0  read in
    real space projection operators read in
  non local Contribution for L=           0  read in
    real space projection operators read in
  non local Contribution for L=           1  read in
    real space projection operators read in
  non local Contribution for L=           1  read in
    real space projection operators read in
    PAW grid and wavefunctions read in
 
   number of l-projection  operators is LMAX  =           4
   number of lm-projection operators is LMMAX =           8
 
 POTCAR:    PAW_PBE Al 04Jan2001                  
   VRHFIN =Al: s2p1                                                             
   LEXCH  = PE                                                                  
   EATOM  =    53.5387 eV,    3.9350 Ry                                         
                                                                                
   TITEL  = PAW_PBE Al 04Jan2001                                                
   LULTRA =        F    use ultrasoft PP ?                                      
   IUNSCR =        1    unscreen: 0-lin 1-nonlin 2-no                           
   RPACOR =    1.500    partial core radius                                     
   POMASS =   26.981; ZVAL   =    3.000    mass and valenz                      
   RCORE  =    1.900    outmost cutoff radius                                   
   RWIGS  =    2.650; RWIGS  =    1.402    wigner-seitz radius (au A)           
   ENMAX  =  240.300; ENMIN  =  180.225 eV                                      
   ICORE  =        2    local potential                                         
   LCOR   =        T    correct aug charges                                     
   LPAW   =        T    paw PP                                                  
   EAUG   =  291.052                                                            
   DEXC   =    0.000                                                            
   RMAX   =    1.939    core radius for proj-oper                               
   RAUG   =    1.300    factor for augmentation sphere                          
   RDEP   =    1.966    radius for radial grids                                 
   RDEPT  =    1.856    core radius for aug-charge                              
                                                                                
   Atomic configuration                                                         
    6 entries                                                                   
     n  l   j            E        occ.                                          
     1  0  0.50     -1511.1048   2.0000                                         
     2  0  0.50      -108.1629   2.0000                                         
     2  1  1.50       -69.6402   6.0000                                         
     3  0  0.50        -7.7528   2.0000                                         
     3  1  1.50        -2.7121   1.0000                                         
     3  2  2.50        -2.7212   0.0000                                         
   Description                                                                  
     l       E           TYP  RCUT    TYP  RCUT                                 
     0     -7.7528455     23  1.900                                             
     0     -3.3096929     23  1.900                                             
     1     -2.7120682     23  1.900                                             
     1     13.6058260     23  1.900                                             
     2     -2.7211652      7  1.900                                             
  local pseudopotential read in
  partial core-charges read in
  partial kinetic energy density read in
  atomic valenz-charges read in
  non local Contribution for L=           0  read in
    real space projection operators read in
  non local Contribution for L=           0  read in
    real space projection operators read in
  non local Contribution for L=           1  read in
    real space projection operators read in
  non local Contribution for L=           1  read in
    real space projection operators read in
    PAW grid and wavefunctions read in
 
   number of l-projection  operators is LMAX  =           4
   number of lm-projection operators is LMMAX =           8
 
 POTCAR:    PAW_PBE S 06Sep2000                   
   VRHFIN =S : s2p4                                                             
   LEXCH  = PE                                                                  
   EATOM  =   276.8230 eV,   20.3459 Ry                                         
                                                                                
   TITEL  = PAW_PBE S 06Sep2000                                                 
   LULTRA =        F    use ultrasoft PP ?                                      
   IUNSCR =        1    unscreen: 0-lin 1-nonlin 2-no                           
   RPACOR =    1.500    partial core radius                                     
   POMASS =   32.066; ZVAL   =    6.000    mass and valenz                      
   RCORE  =    1.900    outmost cutoff radius                                   
   RWIGS  =    2.200; RWIGS  =    1.164    wigner-seitz radius (au A)           
   ENMAX  =  258.689; ENMIN  =  194.016 eV                                      
   ICORE  =        2    local potential                                         
   LCOR   =        T    correct aug charges                                     
   LPAW   =        T    paw PP                                                  
   EAUG   =  335.092                                                            
   DEXC   =    0.000                                                            
   RMAX   =    1.942    core radius for proj-oper                               
   RAUG   =    1.300    factor for augmentation sphere                          
   RDEP   =    1.954    radius for radial grids                                 
   RDEPT  =    1.744    core radius for aug-charge                              
                                                                                
   Atomic configuration                                                         
    6 entries                                                                   
     n  l   j            E        occ.                                          
     1  0  0.50     -2405.8406   2.0000                                         
     2  0  0.50      -211.7007   2.0000                                         
     2  1  1.50      -156.4958   6.0000                                         
     3  0  0.50       -17.2562   2.0000                                         
     3  1  0.50        -7.0085   4.0000                                         
     3  2  1.50        -6.8029   0.0000                                         
   Description                                                                  
     l       E           TYP  RCUT    TYP  RCUT                                 
     0    -17.2561641     23  1.900                                             
     0    -15.8743224     23  1.900                                             
     1     -7.0085400     23  1.900                                             
     1     -2.7779785     23  1.900                                             
     2     -6.8029130     23  1.900                                             
  local pseudopotential read in
  partial core-charges read in
  partial kinetic energy density read in
  atomic valenz-charges read in
  non local Contribution for L=           0  read in
    real space projection operators read in
  non local Contribution for L=           0  read in
    real space projection operators read in
  non local Contribution for L=           1  read in
    real space projection operators read in
  non local Contribution for L=           1  read in
    real space projection operators read in
    PAW grid and wavefunctions read in
 
   number of l-projection  operators is LMAX  =           4
   number of lm-projection operators is LMMAX =           8
 
 POTCAR:    PAW_PBE Cl 06Sep2000                  
   VRHFIN =Cl: s2p5                                                             
   LEXCH  = PE                                                                  
   EATOM  =   409.7259 eV,   30.1140 Ry                                         
                                                                                
   TITEL  = PAW_PBE Cl 06Sep2000                                                
   LULTRA =        F    use ultrasoft PP ?                                      
   IUNSCR =        1    unscreen: 0-lin 1-nonlin 2-no                           
   RPACOR =    1.500    partial core radius                                     
   POMASS =   35.453; ZVAL   =    7.000    mass and valenz                      
   RCORE  =    1.900    outmost cutoff radius                                   
   RWIGS  =    2.100; RWIGS  =    1.111    wigner-seitz radius (au A)           
   ENMAX  =  262.472; ENMIN  =  196.854 eV                                      
   ICORE  =        2    local potential                                         
   LCOR   =        T    correct aug charges                                     
   LPAW   =        T    paw PP                                                  
   EAUG   =  356.192                                                            
   DEXC   =    0.000                                                            
   RMAX   =    1.945    core radius for proj-oper                               
   RAUG   =    1.300    factor for augmentation sphere                          
   RDEP   =    2.020    radius for radial grids                                 
   RDEPT  =    1.678    core radius for aug-charge                              
                                                                                
   Atomic configuration                                                         
    6 entries                                                                   
     n  l   j            E        occ.                                          
     1  0  0.50     -2751.1850   2.0000                                         
     2  0  0.50      -252.6861   2.0000                                         
     2  1  1.50      -191.6157   6.0000                                         
     3  0  0.50       -20.6916   2.0000                                         
     3  1  0.50        -8.5949   5.0000                                         
     3  2  1.50        -8.1635   0.0000                                         
   Description                                                                  
     l       E           TYP  RCUT    TYP  RCUT                                 
     0    -20.6915656     23  1.900                                             
     0    -22.0521482     23  1.900                                             
     1     -8.5948577     23  1.900                                             
     1     -5.3847331     23  1.900                                             
     2     -8.1634956     23  1.900                                             
  local pseudopotential read in
  partial core-charges read in
  partial kinetic energy density read in
  atomic valenz-charges read in
  non local Contribution for L=           0  read in
    real space projection operators read in
  non local Contribution for L=           0  read in
    real space projection operators read in
  non local Contribution for L=           1  read in
    real space projection operators read in
  non local Contribution for L=           1  read in
    real space projection operators read in
    PAW grid and wavefunctions read in
 
   number of l-projection  operators is LMAX  =           4
   number of lm-projection operators is LMMAX =           8
 
 POTCAR:    PAW_PBE Cu 22Jun2005                  
   VRHFIN =Cu: d10 p1                                                           
   LEXCH  = PE                                                                  
   EATOM  =  1390.9808 eV,  102.2342 Ry                                         
                                                                                
   TITEL  = PAW_PBE Cu 22Jun2005                                                
   LULTRA =        F    use ultrasoft PP ?                                      
   IUNSCR =        1    unscreen: 0-lin 1-nonlin 2-no                           
   RPACOR =    2.000    partial core radius                                     
   POMASS =   63.546; ZVAL   =   11.000    mass and valenz                      
   RCORE  =    2.300    outmost cutoff radius                                   
   RWIGS  =    2.200; RWIGS  =    1.164    wigner-seitz radius (au A)           
   ENMAX  =  295.446; ENMIN  =  221.585 eV                                      
   ICORE  =        3    local potential                                         
   LCOR   =        T    correct aug charges                                     
   LPAW   =        T    paw PP                                                  
   EAUG   =  586.980                                                            
   DEXC   =    0.000                                                            
   RMAX   =    2.344    core radius for proj-oper                               
   RAUG   =    1.300    factor for augmentation sphere                          
   RDEP   =    2.302    radius for radial grids                                 
   RDEPT  =    1.771    core radius for aug-charge                              
                                                                                
   Atomic configuration                                                         
    9 entries                                                                   
     n  l   j            E        occ.                                          
     1  0  0.50     -8850.2468   2.0000                                         
     2  0  0.50     -1062.3498   2.0000                                         
     2  1  1.50      -916.8226   6.0000                                         
     3  0  0.50      -114.6929   2.0000                                         
     3  1  1.50       -72.1325   6.0000                                         
     3  2  2.50        -5.0394  10.0000                                         
     4  0  0.50        -4.6097   1.0000                                         
     4  1  0.50        -4.0817   0.0000                                         
     4  3  2.50        -1.3606   0.0000                                         
   Description                                                                  
     l       E           TYP  RCUT    TYP  RCUT                                 
     2     -5.0393973     23  2.200                                             
     2     10.8846608     23  2.200                                             
     0     -4.6097109     23  2.200                                             
     0      8.2520465     23  2.200                                             
     1     -2.7211652     23  2.200                                             
     1     21.7055443     23  2.200                                             
     3      2.7211652     23  2.300                                             
  local pseudopotential read in
  partial core-charges read in
  partial kinetic energy density read in
  atomic valenz-charges read in
  non local Contribution for L=           2  read in
    real space projection operators read in
  non local Contribution for L=           2  read in
    real space projection operators read in
  non local Contribution for L=           0  read in
    real space projection operators read in
  non local Contribution for L=           0  read in
    real space projection operators read in
  non local Contribution for L=           1  read in
    real space projection operators read in
  non local Contribution for L=           1  read in
    real space projection operators read in
    PAW grid and wavefunctions read in
 
   number of l-projection  operators is LMAX  =           6
   number of lm-projection operators is LMMAX =          18
 

 ----------------------------------------------------------------------------- 
|                                                                             |
|  ADVICE TO THIS USER RUNNING 'VASP/VAMP'   (HEAR YOUR MASTER'S VOICE ...):  |
|                                                                             |
|      You have a (more or less) 'large supercell' and for larger cells       |
|      it might be more efficient to use real space projection opertators     |
|      So try LREAL= Auto  in the INCAR   file.                               |
|      Mind:          For very  accurate calculation you might also keep the  |
|      reciprocal projection scheme          (i.e. LREAL=.FALSE.)             |
|                                                                             |
 ----------------------------------------------------------------------------- 

  PAW_PBE C 08Apr2002                   :
 energy of atom  1       EATOM= -147.1560
 kinetic energy error for atom=    0.0076 (will be added to EATOM!!)
  PAW_PBE Al 04Jan2001                  :
 energy of atom  2       EATOM=  -53.5387
 kinetic energy error for atom=    0.0003 (will be added to EATOM!!)
  PAW_PBE S 06Sep2000                   :
 energy of atom  3       EATOM= -276.8230
 kinetic energy error for atom=    0.0020 (will be added to EATOM!!)
  PAW_PBE Cl 06Sep2000                  :
 energy of atom  4       EATOM= -409.7259
 kinetic energy error for atom=    0.0030 (will be added to EATOM!!)
  PAW_PBE Cu 22Jun2005                  :
 energy of atom  5       EATOM=-1390.9808
 kinetic energy error for atom=    0.0043 (will be added to EATOM!!)
 
 
 POSCAR: POSCAR.xyz                              
  positions in cartesian coordinates
  No initial velocities read in
 exchange correlation table for  LEXCH =        8
   RHO(1)=    0.500       N(1)  =     2000
   RHO(2)=  100.500       N(2)  =     4000
 


--------------------------------------------------------------------------------------------------------


 ion  position               nearest neighbor table
   1  0.030  0.302  0.500-  22 1.41  17 1.41 109 1.73
   2  0.030  0.062  0.500-  18 1.41   4 1.41  56 1.73
   3  0.270  0.302  0.500-  24 1.41   5 1.41  57 1.73
   4  0.061  0.031  0.500-  37 1.41   2 1.41  58 1.73
   5  0.301  0.271  0.500-   7 1.41   3 1.41  59 1.73
   6  0.301  0.031  0.500-  39 1.41   8 1.41  60 1.73
   7  0.363  0.302  0.500-  28 1.41   5 1.41  61 1.73
   8  0.363  0.062  0.500-   6 1.41  10 1.41  62 1.73
   9  0.603  0.302  0.500-  30 1.41  11 1.41  63 1.73
  10  0.394  0.031  0.500-  43 1.41   8 1.41  64 1.73
  11  0.634  0.271  0.500-   9 1.41  13 1.41  65 1.73
  12  0.634  0.031  0.500-  45 1.41  14 1.41  66 1.73
  13  0.697  0.302  0.500-  34 1.41  11 1.41  67 1.73
  14  0.696  0.062  0.500-  16 1.41  12 1.41  68 1.73
  15  0.937  0.302  0.500-  36 1.41  17 1.41  69 1.73
  16  0.728  0.031  0.500-  49 1.41  14 1.41  70 1.73
  17  0.968  0.271  0.500-  15 1.41   1 1.41  71 1.73
  18  0.968  0.031  0.500-  51 1.41   2 1.41  72 1.73
  19  0.030  0.635  0.500-  40 1.41  35 1.41  73 1.73
  20  0.030  0.395  0.500-  36 1.41  22 1.41  74 1.73
  21  0.270  0.635  0.500-  23 1.41  42 1.41  75 1.73
  22  0.061  0.364  0.500-   1 1.41  20 1.41  76 1.73
  23  0.301  0.604  0.500-  21 1.41  25 1.41  77 1.73
  24  0.301  0.364  0.500-   3 1.41  26 1.41  78 1.73
  25  0.363  0.635  0.500-  46 1.41  23 1.41  79 1.73
  26  0.363  0.395  0.500-  28 1.41  24 1.41  80 1.73
  27  0.603  0.635  0.500-  29 1.41  48 1.41  81 1.73
  28  0.394  0.364  0.500-   7 1.41  26 1.41  82 1.73
  29  0.634  0.604  0.500-  27 1.41  31 1.41  83 1.73
  30  0.634  0.364  0.500-   9 1.41  32 1.41  84 1.73
  31  0.697  0.635  0.500-  52 1.41  29 1.41  85 1.73
  32  0.696  0.395  0.500-  34 1.41  30 1.41  86 1.73
  33  0.937  0.635  0.500-  35 1.41  54 1.41  87 1.73
  34  0.728  0.364  0.500-  32 1.41  13 1.41  88 1.73
  35  0.968  0.604  0.500-  33 1.41  19 1.41  89 1.73
  36  0.968  0.364  0.500-  15 1.41  20 1.41  90 1.73
  37  0.030  0.969  0.500-   4 1.41  53 1.41  91 1.73
  38  0.030  0.729  0.500-  54 1.41  40 1.41  92 1.73
  39  0.270  0.969  0.500-   6 1.41  41 1.41  93 1.73
  40  0.061  0.698  0.500-  19 1.41  38 1.41  94 1.73
  41  0.301  0.938  0.500-  43 1.41  39 1.41  95 1.73
  42  0.301  0.698  0.500-  44 1.41  21 1.41  96 1.73
  43  0.363  0.969  0.500-  10 1.41  41 1.41  97 1.73
  44  0.363  0.729  0.500-  42 1.41  46 1.41  98 1.73
  45  0.603  0.969  0.500-  12 1.41  47 1.41  99 1.73
  46  0.394  0.698  0.500-  25 1.41  44 1.41 100 1.73
  47  0.634  0.938  0.500-  45 1.41  49 1.41 101 1.73
  48  0.634  0.698  0.500-  50 1.41  27 1.41 102 1.73
  49  0.697  0.969  0.500-  16 1.41  47 1.41 103 1.73
  50  0.696  0.729  0.500-  52 1.41  48 1.41 104 1.73
  51  0.937  0.969  0.500-  18 1.41  53 1.41 105 1.73
  52  0.728  0.698  0.500-  31 1.41  50 1.41 106 1.73
  53  0.968  0.938  0.500-  51 1.41  37 1.41 107 1.73
  54  0.968  0.698  0.500-  38 1.41  33 1.41 108 1.73
  55  0.656  0.334  0.750- 113 2.15 112 2.15 110 2.15 111 2.15
  56  0.068  0.138  0.500-   2 1.73 137 2.28 115 2.28
  57  0.194  0.264  0.500-   3 1.73 137 2.28 138 2.28
  58  0.137  0.069  0.500-   4 1.73 137 2.28 129 2.28
  59  0.263  0.195  0.500-   5 1.73 136 2.28 137 2.28
  60  0.263  0.069  0.500-   6 1.73 129 2.28 136 2.28
  61  0.401  0.264  0.500-   7 1.73 114 2.28 136 2.28
  62  0.401  0.138  0.500-   8 1.73 140 2.28 136 2.28
  63  0.527  0.264  0.500-   9 1.73 140 2.28 114 2.28
  64  0.470  0.069  0.500-  10 1.73 140 2.28 132 2.28
  65  0.596  0.195  0.500-  11 1.73 139 2.28 140 2.28
  66  0.596  0.069  0.500-  12 1.73 132 2.28 139 2.28
  67  0.735  0.264  0.500-  13 1.73 117 2.28 139 2.28
  68  0.735  0.138  0.500-  14 1.73 116 2.28 139 2.28
  69  0.861  0.264  0.500-  15 1.73 116 2.28 117 2.28
  70  0.804  0.069  0.500-  16 1.73 116 2.28 135 2.28
  71  0.930  0.195  0.500-  17 1.73 115 2.28 116 2.28
  72  0.930  0.069  0.500-  18 1.73 135 2.28 115 2.28
  73  0.068  0.597  0.500-  19 1.73 120 2.28 124 2.28
  74  0.068  0.471  0.500-  20 1.73 119 2.28 124 2.28
  75  0.194  0.597  0.500-  21 1.73 119 2.28 120 2.28
  76  0.137  0.402  0.500-  22 1.73 119 2.28 138 2.28
  77  0.263  0.528  0.500-  23 1.73 118 2.28 119 2.28
  78  0.263  0.402  0.500-  24 1.73 138 2.28 118 2.28
  79  0.401  0.597  0.500-  25 1.73 123 2.28 118 2.28
  80  0.401  0.471  0.500-  26 1.73 122 2.28 118 2.28
  81  0.527  0.597  0.500-  27 1.73 122 2.28 123 2.28
  82  0.470  0.402  0.500-  28 1.73 122 2.28 114 2.28
  83  0.596  0.528  0.500-  29 1.73 121 2.28 122 2.28
  84  0.596  0.402  0.500-  30 1.73 114 2.28 121 2.28
  85  0.735  0.597  0.500-  31 1.73 126 2.28 121 2.28
  86  0.735  0.471  0.500-  32 1.73 125 2.28 121 2.28
  87  0.861  0.597  0.500-  33 1.73 125 2.28 126 2.28
  88  0.804  0.402  0.500-  34 1.73 125 2.28 117 2.28
  89  0.930  0.528  0.500-  35 1.73 124 2.28 125 2.28
  90  0.930  0.402  0.500-  36 1.73 117 2.28 124 2.28
  91  0.068  0.931  0.500-  37 1.73 129 2.28 133 2.28
  92  0.068  0.805  0.500-  38 1.73 128 2.28 133 2.28
  93  0.194  0.931  0.500-  39 1.73 128 2.28 129 2.28
  94  0.137  0.736  0.500-  40 1.73 128 2.28 120 2.28
  95  0.263  0.862  0.500-  41 1.73 127 2.28 128 2.28
  96  0.263  0.736  0.500-  42 1.73 120 2.28 127 2.28
  97  0.401  0.931  0.500-  43 1.73 132 2.28 127 2.28
  98  0.401  0.805  0.500-  44 1.73 131 2.28 127 2.28
  99  0.527  0.931  0.500-  45 1.73 131 2.28 132 2.28
 100  0.470  0.736  0.500-  46 1.73 131 2.28 123 2.28
 101  0.596  0.862  0.500-  47 1.73 130 2.28 131 2.28
 102  0.596  0.736  0.500-  48 1.73 123 2.28 130 2.28
 103  0.735  0.931  0.500-  49 1.73 135 2.28 130 2.28
 104  0.735  0.805  0.500-  50 1.73 134 2.28 130 2.28
 105  0.861  0.931  0.500-  51 1.73 134 2.28 135 2.28
 106  0.804  0.736  0.500-  52 1.73 134 2.28 126 2.28
 107  0.930  0.862  0.500-  53 1.73 133 2.28 134 2.28
 108  0.930  0.736  0.500-  54 1.73 126 2.28 133 2.28
 109  0.068  0.264  0.500-   1 1.73 138 2.28 115 2.28
 110  0.722  0.320  0.707-  55 2.15
 111  0.674  0.419  0.714-  55 2.15
 112  0.569  0.266  0.722-  55 2.15
 113  0.658  0.334  0.856-  55 2.15
 114  0.499  0.333  0.500-  61 2.28  84 2.28  82 2.28  63 2.28
 115  0.999  0.167  0.500-  71 2.28  56 2.28 109 2.28  72 2.28
 116  0.832  0.167  0.500-  68 2.28  70 2.28  69 2.28  71 2.28
 117  0.832  0.333  0.500-  67 2.28  90 2.28  88 2.28  69 2.28
 118  0.332  0.500  0.500-  77 2.28  80 2.28  79 2.28  78 2.28
 119  0.165  0.500  0.500-  74 2.28  75 2.28  76 2.28  77 2.28
 120  0.165  0.667  0.500-  73 2.28  96 2.28  94 2.28  75 2.28
 121  0.665  0.500  0.500-  83 2.28  86 2.28  85 2.28  84 2.28
 122  0.499  0.500  0.500-  80 2.28  81 2.28  82 2.28  83 2.28
 123  0.499  0.667  0.500-  79 2.28 102 2.28 100 2.28  81 2.28
 124  0.999  0.500  0.500-  89 2.28  74 2.28  73 2.28  90 2.28
 125  0.832  0.500  0.500-  86 2.28  87 2.28  88 2.28  89 2.28
 126  0.832  0.667  0.500-  85 2.28 108 2.28 106 2.28  87 2.28
 127  0.332  0.833  0.500-  95 2.28  98 2.28  97 2.28  96 2.28
 128  0.165  0.833  0.500-  92 2.28  94 2.28  93 2.28  95 2.28
 129  0.165  1.000  0.500-  91 2.28  60 2.28  58 2.28  93 2.28
 130  0.665  0.833  0.500- 101 2.28 104 2.28 103 2.28 102 2.28
 131  0.499  0.833  0.500-  98 2.28 100 2.28  99 2.28 101 2.28
 132  0.499  1.000  0.500-  97 2.28  66 2.28  64 2.28  99 2.28
 133  0.999  0.833  0.500- 107 2.28  92 2.28  91 2.28 108 2.28
 134  0.832  0.833  0.500- 104 2.28 106 2.28 105 2.28 107 2.28
 135  0.832  1.000  0.500- 103 2.28  72 2.28  70 2.28 105 2.28
 136  0.332  0.167  0.500-  59 2.28  62 2.28  61 2.28  60 2.28
 137  0.165  0.167  0.500-  56 2.28  58 2.28  57 2.28  59 2.28
 138  0.165  0.333  0.500- 109 2.28  78 2.28  76 2.28  57 2.28
 139  0.665  0.167  0.500-  65 2.28  68 2.28  67 2.28  66 2.28
 140  0.499  0.167  0.500-  62 2.28  64 2.28  63 2.28  65 2.28
 
  LATTYP: Found a simple monoclinic cell.
 ALAT       =    26.2686690213
 B/A-ratio  =     0.7690454121
 C/A-ratio  =     1.7319636160
 COS(beta)  =    -0.8660294702
  
  Lattice vectors:
  
 A1 = ( -13.1336201829, -22.7497470984,   0.0000000000)
 A2 = (   0.0000000000,   0.0000000000, -20.2017993927)
 A3 = (  39.4001206559,  22.7497470984,   0.0000000000)


Analysis of symmetry for initial positions (statically):
=====================================================================
 Subroutine PRICEL returns:
 Original cell was already a primitive cell.
 

 Routine SETGRP: Setting up the symmetry group for a 
 simple monoclinic supercell.


 Subroutine GETGRP returns: Found  1 space group operations
 (whereof  1 operations were pure point group operations)
 out of a pool of  4 trial point group operations.


The static configuration has the point symmetry C_1 .


Analysis of symmetry for dynamics (positions and initial velocities):
=====================================================================
 Subroutine PRICEL returns:
 Original cell was already a primitive cell.
 

 Routine SETGRP: Setting up the symmetry group for a 
 simple monoclinic supercell.


 Subroutine GETGRP returns: Found  1 space group operations
 (whereof  1 operations were pure point group operations)
 out of a pool of  4 trial point group operations.


The dynamic configuration has the point symmetry C_1 .


Analysis of structural, dynamic, and magnetic symmetry:
=====================================================================
 Subroutine PRICEL returns:
 Original cell was already a primitive cell.
 

 Routine SETGRP: Setting up the symmetry group for a 
 simple monoclinic supercell.


 Subroutine GETGRP returns: Found  1 space group operations
 (whereof  1 operations were pure point group operations)
 out of a pool of  4 trial point group operations.


The magnetic configuration has the point symmetry C_1 .


 Subroutine INISYM returns: Found  1 space group operations
 (whereof  1 operations are pure point group operations),
 and found     1 'primitive' translations

 
 
 KPOINTS: K-Points                                

Automatic generation of k-mesh.
Space group operators:
 irot       det(A)        alpha          n_x          n_y          n_z        tau_x        tau_y        tau_z
    1     1.000000     0.000001     1.000000     0.000000     0.000000     0.000000     0.000000     0.000000
 
 Subroutine IBZKPT returns following result:
 ===========================================
 
 Found      5 irreducible k-points:
 
 Following reciprocal coordinates:
            Coordinates               Weight
  0.000000  0.000000  0.000000      1.000000
  0.333333  0.000000  0.000000      2.000000
  0.000000  0.333333  0.000000      2.000000
  0.333333  0.333333  0.000000      2.000000
 -0.333333  0.333333  0.000000      2.000000
 
 Following cartesian coordinates:
            Coordinates               Weight
  0.000000  0.000000  0.000000      1.000000
  0.012690  0.007326  0.000000      2.000000
  0.000000  0.014652  0.000000      2.000000
  0.012690  0.021978  0.000000      2.000000
 -0.012690  0.007326  0.000000      2.000000
 


--------------------------------------------------------------------------------------------------------




 Dimension of arrays:
   k-points           NKPTS =      5   k-points in BZ     NKDIM =      5   number of bands    NBANDS=    590
   number of dos      NEDOS =    301   number of ions     NIONS =    140
   non local maximal  LDIM  =      6   non local SUM 2l+1 LMDIM =     18
   total plane-waves  NPLWV = ******
   max r-space proj   IRMAX =      1   max aug-charges    IRDMAX=   7686
   dimension x,y,z NGX =   144 NGY =  144 NGZ =  112
   dimension x,y,z NGXF=   288 NGYF=  288 NGZF=  224
   support grid    NGXF=   288 NGYF=  288 NGZF=  224
   ions per type =              54   1  54   4  27
   NGX,Y,Z   is equivalent  to a cutoff of   9.11,  9.11,  9.22 a.u.
   NGXF,Y,Z  is equivalent  to a cutoff of  18.23, 18.23, 18.43 a.u.

 SYSTEM =  membrane                                
 POSCAR =  POSCAR.xyz                              

 Startparameter for this run:
   NWRITE =      2    write-flag & timer
   PREC   = normal    normal or accurate (medium, high low for compatibility)
   ISTART =      0    job   : 0-new  1-cont  2-samecut
   ICHARG =      2    charge: 1-file 2-atom 10-const
   ISPIN  =      2    spin polarized calculation?
   LNONCOLLINEAR =      F non collinear calculations
   LSORBIT =      F    spin-orbit coupling
   INIWAV =      1    electr: 0-lowe 1-rand  2-diag
   LASPH  =      F    aspherical Exc in radial PAW
   METAGGA=      F    non-selfconsistent MetaGGA calc.

 Electronic Relaxation 1
   ENCUT  =  500.0 eV  36.75 Ry    6.06 a.u.  47.89 47.89 36.83*2*pi/ulx,y,z
   ENINI  =  500.0     initial cutoff
   ENAUG  =  644.9 eV  augmentation charge cutoff
   NELM   =     60;   NELMIN=  2; NELMDL= -5     # of ELM steps 
   EDIFF  = 0.1E-05   stopping-criterion for ELM
   LREAL  =      F    real-space projection
   NLSPLINE    = F    spline interpolate recip. space projectors
   LCOMPAT=      F    compatible to vasp.4.4
   GGA_COMPAT  = T    GGA compatible to vasp.4.4-vasp.4.6
   LMAXPAW     = -100 max onsite density
   LMAXMIX     =    2 max onsite mixed and CHGCAR
   VOSKOWN=      0    Vosko Wilk Nusair interpolation
   ROPT   =    0.00000   0.00000   0.00000   0.00000
   ROPT   =    0.00000
 Ionic relaxation
   EDIFFG = -.1E-01   stopping-criterion for IOM
   NSW    =   1000    number of steps for IOM
   NBLOCK =      1;   KBLOCK =   1000    inner block; outer block 
   IBRION =      2    ionic relax: 0-MD 1-quasi-New 2-CG
   NFREE  =      1    steps in history (QN), initial steepest desc. (CG)
   ISIF   =      2    stress and relaxation
   IWAVPR =     11    prediction:  0-non 1-charg 2-wave 3-comb
   ISYM   =      2    0-nonsym 1-usesym 2-fastsym
   LCORR  =      T    Harris-Foulkes like correction to forces

   POTIM  = 0.5000    time-step for ionic-motion
   TEIN   =    0.0    initial temperature
   TEBEG  =    0.0;   TEEND  =   0.0 temperature during run
   SMASS  =  -3.00    Nose mass-parameter (am)
   estimated Nose-frequenzy (Omega)   =  0.10E-29 period in steps =****** mass=  -0.158E-25a.u.
   SCALEE = 1.0000    scale energy and forces
   NPACO  =    256;   APACO  = 16.0  distance and # of slots for P.C.
   PSTRESS=    0.0 pullay stress

  Mass of Ions in am
   POMASS =  12.01 26.98 32.07 35.45 63.55
  Ionic Valenz
   ZVAL   =   4.00  3.00  6.00  7.00 11.00
  Atomic Wigner-Seitz radii
   RWIGS  =  -1.00 -1.00 -1.00 -1.00 -1.00
  virtual crystal weights 
   VCA    =   1.00  1.00  1.00  1.00  1.00
   NELECT =     868.0000    total number of electrons
   NUPDOWN=      -1.0000    fix difference up-down

 DOS related values:
   EMIN   =  10.00;   EMAX   =-10.00  energy-range for DOS
   EFERMI =   0.00
   ISMEAR =     0;   SIGMA  =   0.05  broadening in eV -4-tet -1-fermi 0-gaus

 Electronic relaxation 2 (details)
   IALGO  =     68    algorithm
   LDIAG  =      T    sub-space diagonalisation (order eigenvalues)
   LSUBROT=      F    optimize rotation matrix (better conditioning)
   TURBO    =      0    0=normal 1=particle mesh
   IRESTART =      0    0=no restart 2=restart with 2 vectors
   NREBOOT  =      0    no. of reboots
   NMIN     =      0    reboot dimension
   EREF     =   0.00    reference energy to select bands
   IMIX   =      4    mixing-type and parameters
     AMIX     =   0.40;   BMIX     =  1.00
     AMIX_MAG =   1.60;   BMIX_MAG =  1.00
     AMIN     =   0.10
     WC   =   100.;   INIMIX=   1;  MIXPRE=   1;  MAXMIX= -45

 Intra band minimization:
   WEIMIN = 0.0010     energy-eigenvalue tresh-hold
   EBREAK =  0.42E-09  absolut break condition
   DEPER  =   0.30     relativ break condition  

   TIME   =   0.40     timestep for ELM

  volume/ion in A,a.u.               =      86.23       581.89
  Fermi-wavevector in a.u.,A,eV,Ry     =   0.680756  1.286443  6.305340  0.463429
  Thomas-Fermi vector in A             =   1.759340
 
 Write flags
   LWAVE        =      F    write WAVECAR
   LDOWNSAMPLE  =      F    k-point downsampling of WAVECAR
   LCHARG       =      F    write CHGCAR
   LVTOT        =      F    write LOCPOT, total local potential
   LVHAR        =      F    write LOCPOT, Hartree potential only
   LELF         =      F    write electronic localiz. function (ELF)
   LORBIT       =      0    0 simple, 1 ext, 2 COOP (PROOUT), +10 PAW based schemes


 Dipole corrections
   LMONO  =      F    monopole corrections only (constant potential shift)
   LDIPOL =      F    correct potential (dipole corrections)
   IDIPOL =      0    1-x, 2-y, 3-z, 4-all directions 
   EPSILON=  1.0000000 bulk dielectric constant

 Exchange correlation treatment:
   GGA     =    --    GGA type
   LEXCH   =     8    internal setting for exchange type
   VOSKOWN=      0    Vosko Wilk Nusair interpolation
   LHFCALC =     F    Hartree Fock is set to
   LHFONE  =     F    Hartree Fock one center treatment
   AEXX    =    0.0000 exact exchange contribution

 Linear response parameters
   LEPSILON=     F    determine dielectric tensor
   LRPA    =     F    only Hartree local field effects (RPA)
   LNABLA  =     F    use nabla operator in PAW spheres
   LVEL    =     F    velocity operator in full k-point grid
   LINTERFAST=   F  fast interpolation
   KINTER  =     0    interpolate to denser k-point grid
   CSHIFT  =0.1000    complex shift for real part using Kramers Kronig
   OMEGAMAX=  -1.0    maximum frequency
   DEG_THRESHOLD= 0.2000000E-02 threshold for treating states as degnerate
   RTIME   =   -0.100 relaxation time in fs
  (WPLASMAI=    0.000 imaginary part of plasma frequency in eV, 0.658/RTIME)
   DFIELD  = 0.0000000 0.0000000 0.0000000 field for delta impulse in time
 
 Orbital magnetization related:
   ORBITALMAG=     F  switch on orbital magnetization
   LCHIMAG   =     F  perturbation theory with respect to B field
   DQ        =  0.001000  dq finite difference perturbation B field
   LLRAUG    =     F  two centre corrections for induced B field



--------------------------------------------------------------------------------------------------------


 conjugate gradient relaxation of ions
 charge density and potential will be updated during run
 spin polarized calculation
 RMM-DIIS sequential band-by-band and
  variant of blocked Davidson during initial phase
 perform sub-space diagonalisation
    before iterative eigenvector-optimisation
 modified Broyden-mixing scheme, WC =      100.0
 initial mixing is a Kerker type mixing with AMIX =  0.4000 and BMIX =      1.0000
 Hartree-type preconditioning will be used
 using additional bands          156
 reciprocal scheme for non local part
 use partial core corrections
 calculate Harris-corrections to forces 
   (improved forces if not selfconsistent)
 use gradient corrections 
 use of overlap-Matrix (Vanderbilt PP)
 Gauss-broadening in eV      SIGMA  =   0.05


--------------------------------------------------------------------------------------------------------


  energy-cutoff  :      500.00
  volume of cell :    12071.71
      direct lattice vectors                 reciprocal lattice vectors
    26.266500473  0.000000000  0.000000000     0.038071307  0.021977647  0.000000000
   -13.132880290 22.749747098  0.000000000     0.000000000  0.043956533  0.000000000
     0.000000000  0.000000000 20.201799393     0.000000000  0.000000000  0.049500541

  length of vectors
    26.266500473 26.268299103 20.201799393     0.043959543  0.043956533  0.049500541


 
 k-points in units of 2pi/SCALE and weight: K-Points                                
   0.00000000  0.00000000  0.00000000       0.111
   0.01269044  0.00732588  0.00000000       0.222
   0.00000000  0.01465218  0.00000000       0.222
   0.01269044  0.02197806  0.00000000       0.222
  -0.01269044  0.00732630  0.00000000       0.222
 
 k-points in reciprocal lattice and weights: K-Points                                
   0.00000000  0.00000000  0.00000000       0.111
   0.33333333  0.00000000  0.00000000       0.222
   0.00000000  0.33333333  0.00000000       0.222
   0.33333333  0.33333333  0.00000000       0.222
  -0.33333333  0.33333333  0.00000000       0.222
 
 position of ions in fractional coordinates (direct lattice) 
   0.02985246  0.30215457  0.50000002
   0.02982867  0.06203322  0.50000002
   0.26995370  0.30214841  0.50000002
   0.06091427  0.03096386  0.50000002
   0.30103537  0.27107730  0.50000002
   0.30101632  0.03095859  0.50000002
   0.36318715  0.30215501  0.50000002
   0.36316504  0.06203322  0.50000002
   0.60328849  0.30214753  0.50000002
   0.39424862  0.03096210  0.50000002
   0.63436826  0.27107642  0.50000002
   0.63434839  0.03095683  0.50000002
   0.69652178  0.30215457  0.50000002
   0.69649902  0.06203146  0.50000002
   0.93661959  0.30214841  0.50000002
   0.72758311  0.03096518  0.50000002
   0.96769990  0.27107686  0.50000002
   0.96768058  0.03095683  0.50000002
   0.02985094  0.63548662  0.50000002
   0.02982955  0.39536703  0.50000002
   0.26995278  0.63548091  0.50000002
   0.06091254  0.36429856  0.50000002
   0.30103621  0.60441331  0.50000002
   0.30101454  0.36429240  0.50000002
   0.36318645  0.63548794  0.50000002
   0.36316592  0.39536703  0.50000002
   0.60328757  0.63548003  0.50000002
   0.39424689  0.36429680  0.50000002
   0.63436909  0.60441243  0.50000002
   0.63434661  0.36429064  0.50000002
   0.69652146  0.63548750  0.50000002
   0.69649989  0.39536527  0.50000002
   0.93661893  0.63547915  0.50000002
   0.72758100  0.36429987  0.50000002
   0.96769980  0.60441024  0.50000002
   0.96767917  0.36429064  0.50000002
   0.02985096  0.96882176  0.50000002
   0.02982841  0.72869909  0.50000002
   0.26995289  0.96881473  0.50000002
   0.06091242  0.69762885  0.50000002
   0.30103555  0.93774405  0.50000002
   0.30101744  0.69762797  0.50000002
   0.36318603  0.96882220  0.50000002
   0.36316456  0.72869865  0.50000002
   0.60328807  0.96881385  0.50000002
   0.39424760  0.69762797  0.50000002
   0.63436806  0.93774317  0.50000002
   0.63434973  0.69762666  0.50000002
   0.69652066  0.96882176  0.50000002
   0.69649875  0.72869733  0.50000002
   0.93661879  0.96881473  0.50000002
   0.72758208  0.69763105  0.50000002
   0.96769970  0.93774361  0.50000002
   0.96768163  0.69762534  0.50000002
   0.65581611  0.33448064  0.75001339
   0.06787467  0.13812813  0.50000002
   0.19384621  0.26408689  0.50000002
   0.13701868  0.06901923  0.50000002
   0.26297787  0.19497843  0.50000002
   0.26296372  0.06901659  0.50000002
   0.40124843  0.26411283  0.50000002
   0.40120838  0.13812813  0.50000002
   0.52718536  0.26408865  0.50000002
   0.47035015  0.06901703  0.50000002
   0.59631457  0.19497755  0.50000002
   0.59630057  0.06901527  0.50000002
   0.73458497  0.26411239  0.50000002
   0.73454231  0.13812857  0.50000002
   0.86051565  0.26408865  0.50000002
   0.80368550  0.06901879  0.50000002
   0.92964469  0.19497799  0.50000002
   0.92963162  0.06901527  0.50000002
   0.06791619  0.59744400  0.50000002
   0.06787327  0.47146194  0.50000002
   0.19384798  0.59742554  0.50000002
   0.13702038  0.40235392  0.50000002
   0.26297521  0.52831049  0.50000002
   0.26296366  0.40234777  0.50000002
   0.40124843  0.59744488  0.50000002
   0.40120720  0.47146238  0.50000002
   0.52718714  0.59742730  0.50000002
   0.47035185  0.40235173  0.50000002
   0.59631190  0.52830961  0.50000002
   0.59630013  0.40234645  0.50000002
   0.73458497  0.59744444  0.50000002
   0.73454113  0.47146282  0.50000002
   0.86051758  0.59742686  0.50000002
   0.80368720  0.40235348  0.50000002
   0.92964333  0.52830961  0.50000002
   0.92963134  0.40234601  0.50000002
   0.06791641  0.93077650  0.50000002
   0.06787513  0.80479620  0.50000002
   0.19384618  0.93075628  0.50000002
   0.13701804  0.73568510  0.50000002
   0.26297675  0.86164562  0.50000002
   0.26296362  0.73568202  0.50000002
   0.40124887  0.93077782  0.50000002
   0.40120884  0.80479620  0.50000002
   0.52718594  0.93075848  0.50000002
   0.47034973  0.73568334  0.50000002
   0.59631306  0.86164474  0.50000002
   0.59630009  0.73568071  0.50000002
   0.73458541  0.93077738  0.50000002
   0.73454277  0.80479664  0.50000002
   0.86051622  0.93075848  0.50000002
   0.80368529  0.73568554  0.50000002
   0.92964356  0.86164518  0.50000002
   0.92963152  0.73568071  0.50000002
   0.06791597  0.26411151  0.50000002
   0.72222789  0.31985894  0.70665685
   0.67354180  0.41890400  0.71410570
   0.56939409  0.26572999  0.72240446
   0.65804663  0.33360635  0.85640738
   0.49876995  0.33322173  0.50000002
   0.99876467  0.16657372  0.50000002
   0.83207394  0.16654691  0.50000002
   0.83210083  0.33322217  0.50000002
   0.33209655  0.49990666  0.50000002
   0.16540818  0.49988380  0.50000002
   0.16543317  0.66655906  0.50000002
   0.66543347  0.49990622  0.50000002
   0.49874265  0.49988380  0.50000002
   0.49877008  0.66655862  0.50000002
   0.99876467  0.49990578  0.50000002
   0.83207331  0.49988380  0.50000002
   0.83210096  0.66655906  0.50000002
   0.33209753  0.83323915  0.50000002
   0.16540921  0.83321410  0.50000002
   0.16543339  0.99989155  0.50000002
   0.66543407  0.83323871  0.50000002
   0.49874330  0.83321410  0.50000002
   0.49876992  0.99989112  0.50000002
   0.99876413  0.83323827  0.50000002
   0.83207402  0.83321498  0.50000002
   0.83210080  0.99989155  0.50000002
   0.33209808  0.16657460  0.50000002
   0.16540875  0.16654603  0.50000002
   0.16543303  0.33322217  0.50000002
   0.66543439  0.16657372  0.50000002
   0.49874322  0.16654603  0.50000002
 
 position of ions in cartesian coordinates  (Angst):
  -3.18404000  6.87394000 10.10090000
  -0.03118000  1.41124000 10.10090000
   3.12266000  6.87380000 10.10090000
   1.19336000  0.70442000 10.10090000
   4.34712000  6.16694000 10.10090000
   7.50007000  0.70430000 10.10090000
   5.57149000  6.87395000 10.10090000
   8.72440000  1.41124000 10.10090000
  11.87821000  6.87378000 10.10090000
   9.94891000  0.70438000 10.10090000
  13.10262000  6.16692000 10.10090000
  16.25556000  0.70426000 10.10090000
  14.32703000  6.87394000 10.10090000
  17.47994000  1.41120000 10.10090000
  20.63364000  6.87380000 10.10090000
  18.70440000  0.70445000 10.10090000
  21.85807000  6.16693000 10.10090000
  25.01103000  0.70426000 10.10090000
  -7.56169000 14.45716000 10.10090000
  -4.40879000  8.99450000 10.10090000
  -1.25498000 14.45703000 10.10090000
  -3.18433000  8.28770000 10.10090000
  -0.03052000 13.75025000 10.10090000
   3.12239000  8.28756000 10.10090000
   1.19385000 14.45719000 10.10090000
   4.34679000  8.99450000 10.10090000
   7.50057000 14.45701000 10.10090000
   5.57122000  8.28766000 10.10090000
   8.72498000 13.75023000 10.10090000
  11.87788000  8.28752000 10.10090000
   9.94940000 14.45718000 10.10090000
  13.10233000  8.99446000 10.10090000
  16.25603000 14.45699000 10.10090000
  14.32670000  8.28773000 10.10090000
  17.48044000 13.75018000 10.10090000
  20.63336000  8.28752000 10.10090000
 -11.93934000 22.04045000 10.10090000
  -8.78643000 16.57772000 10.10090000
  -5.63261000 22.04029000 10.10090000
  -7.56192000 15.87088000 10.10090000
  -4.40813000 21.33344000 10.10090000
  -1.25519000 15.87086000 10.10090000
  -3.18380000 22.04046000 10.10090000
  -0.03085000 16.57771000 10.10090000
   3.12295000 22.04027000 10.10090000
   1.19364000 15.87086000 10.10090000
   4.34736000 21.33342000 10.10090000
   7.50030000 15.87083000 10.10090000
   5.57174000 22.04045000 10.10090000
   8.72469000 16.57768000 10.10090000
  11.87837000 22.04029000 10.10090000
   9.94913000 15.87093000 10.10090000
  13.10281000 21.33343000 10.10090000
  16.25578000 15.87080000 10.10090000
  12.83330000  7.60935000 15.15162000
  -0.03119000  3.14238000 10.10090000
   1.62344000  6.00791000 10.10090000
   2.69258000  1.57017000 10.10090000
   4.34688000  4.43571000 10.10090000
   6.00075000  1.57011000 10.10090000
   7.07083000  6.00850000 10.10090000
   8.72432000  3.14238000 10.10090000
  10.37907000  6.00795000 10.10090000
  11.44806000  1.57012000 10.10090000
  13.10248000  4.43569000 10.10090000
  14.75636000  1.57008000 10.10090000
  15.82642000  6.00849000 10.10090000
  17.47983000  3.14239000 10.10090000
  19.13449000  6.00795000 10.10090000
  20.20359000  1.57016000 10.10090000
  21.85789000  4.43570000 10.10090000
  23.51180000  1.57008000 10.10090000
  -6.06224000 13.59170000 10.10090000
  -4.40886000 10.72564000 10.10090000
  -2.75421000 13.59128000 10.10090000
  -1.68502000  9.15345000 10.10090000
  -0.03080000 12.01893000 10.10090000
   1.62315000  9.15331000 10.10090000
   2.69322000 13.59172000 10.10090000
   4.34665000 10.72565000 10.10090000
   6.00142000 13.59132000 10.10090000
   7.07046000  9.15340000 10.10090000
   8.72480000 12.01891000 10.10090000
  10.37875000  9.15328000 10.10090000
  11.44881000 13.59171000 10.10090000
  13.10216000 10.72566000 10.10090000
  14.75685000 13.59131000 10.10090000
  15.82599000  9.15344000 10.10090000
  17.48025000 12.01891000 10.10090000
  19.13420000  9.15327000 10.10090000
 -10.43985000 21.17493000 10.10090000
  -8.78645000 18.30891000 10.10090000
  -7.13185000 21.17447000 10.10090000
  -6.06268000 16.73665000 10.10090000
  -4.40841000 19.60222000 10.10090000
  -2.75449000 16.73658000 10.10090000
  -1.68439000 21.17496000 10.10090000
  -0.03094000 18.30891000 10.10090000
   1.62379000 21.17452000 10.10090000
   2.69280000 16.73661000 10.10090000
   4.34718000 19.60220000 10.10090000
   6.00111000 16.73655000 10.10090000
   7.07120000 21.17495000 10.10090000
   8.72457000 18.30892000 10.10090000
  10.37921000 21.17452000 10.10090000
  11.44833000 16.73666000 10.10090000
  13.10260000 19.60221000 10.10090000
  14.75656000 16.73655000 10.10090000
  -1.68463000  6.00847000 10.10090000
  14.76973000  7.27671000 14.27574000
  12.19017000  9.52996000 14.42622000
  11.46619000  6.04529000 14.59387000
  12.90337000  7.58946000 17.30097000
   8.72478000  7.58071000 10.10090000
  24.04646000  3.78951000 10.10090000
  19.66843000  3.78890000 10.10090000
  17.48021000  7.58072000 10.10090000
   2.15780000 11.37275000 10.10090000
  -2.22022000 11.37223000 10.10090000
  -4.40849000 15.16405000 10.10090000
  10.91340000 11.37274000 10.10090000
   6.53531000 11.37223000 10.10090000
   4.34711000 15.16404000 10.10090000
  19.66885000 11.37273000 10.10090000
  15.29074000 11.37223000 10.10090000
  13.10254000 15.16405000 10.10090000
  -2.21979000 18.95598000 10.10090000
  -6.59778000 18.95541000 10.10090000
  -8.78610000 22.74728000 10.10090000
   6.53580000 18.95597000 10.10090000
   2.15774000 18.95541000 10.10090000
  -0.03051000 22.74727000 10.10090000
  15.29122000 18.95596000 10.10090000
  10.91316000 18.95543000 10.10090000
   8.72492000 22.74728000 10.10090000
   6.53545000  3.78953000 10.10090000
   2.15748000  3.78888000 10.10090000
  -0.03082000  7.58072000 10.10090000
  15.29104000  3.78951000 10.10090000
  10.91301000  3.78888000 10.10090000
 


--------------------------------------------------------------------------------------------------------


 k-point  1 :   0.0000 0.0000 0.0000  plane waves:  306477
 k-point  2 :   0.3333 0.0000 0.0000  plane waves:  306541
 k-point  3 :   0.0000 0.3333 0.0000  plane waves:  306545
 k-point  4 :   0.3333 0.3333 0.0000  plane waves:  306448
 k-point  5 :  -0.3333 0.3333 0.0000  plane waves:  306545

 maximum and minimum number of plane-waves per node :      9609     9550

 maximum number of plane-waves:    306545
 maximum index in each direction: 
   IXMAX=   48   IYMAX=   47   IZMAX=   36
   IXMIN=  -48   IYMIN=  -48   IZMIN=  -36


 parallel 3D FFT for wavefunctions:
    minimum data exchange during FFTs selected (reduces bandwidth)
 parallel 3D FFT for charge:
    minimum data exchange during FFTs selected (reduces bandwidth)


 total amount of memory used by VASP MPI-rank0  1085483. kBytes
=======================================================================

   base      :      30000. kBytes
   nonl-proj :      55993. kBytes
   fftplans  :      22195. kBytes
   grid      :      67313. kBytes
   one-center:        155. kBytes
   wavefun   :     909827. kBytes
 
     INWAV:  cpu time    0.0000: real time    0.0000
 Broyden mixing: mesh for mixing (old mesh)
   NGX = 95   NGY = 95   NGZ = 73
  (NGX  =288   NGY  =288   NGZ  =224)
  gives a total of 658825 points

 initial charge density was supplied:
 charge density of overlapping atoms calculated
 number of electron     868.0000000 magnetization     140.0000000
 keeping initial charge density in first step


--------------------------------------------------------------------------------------------------------


 Maximum index for augmentation-charges          392 (set IRDMAX)


--------------------------------------------------------------------------------------------------------


 First call to EWALD:  gamma=   0.077
 Maximum number of real-space cells 3x 3x 3
 Maximum number of reciprocal cells 3x 3x 2

    FEWALD:  cpu time    0.0264: real time    0.0270


--------------------------------------- Iteration      1(   1)  ---------------------------------------


    POTLOK:  cpu time    1.6026: real time    1.6150
    SETDIJ:  cpu time    0.0468: real time    0.0501
     EDDAV:  cpu time  809.4428: real time  809.9456
       DOS:  cpu time    0.0142: real time    0.0173
    --------------------------------------------
      LOOP:  cpu time  811.1064: real time  811.6281

 eigenvalue-minimisations  : 12096
 total energy-change (2. order) : 0.7826479E+04  (-0.2714957E+05)
 number of electron     868.0000000 magnetization     140.0000000
 augmentation part      868.0000000 magnetization     140.0000000

 Free energy of the ion-electron system (eV)
  ---------------------------------------------------
  alpha Z        PSCENC =       315.09161757
  Ewald energy   TEWEN  =    106158.79682208
  -Hartree energ DENC   =   -160727.07461077
  -exchange      EXHF   =         0.00000000
  -V(xc)+E(xc)   XCENC  =      2664.58711356
  PAW double counting   =     52118.65182442   -54801.79846914
  entropy T*S    EENTRO =        -0.12007177
  eigenvalues    EBANDS =       -44.80225408
  atomic energy  EATOM  =     62143.14740716
  Solvation  Ediel_sol  =         0.00000000
  ---------------------------------------------------
  free energy    TOTEN  =      7826.47937903 eV

  energy without entropy =     7826.59945080  energy(sigma->0) =     7826.53941491


--------------------------------------------------------------------------------------------------------




--------------------------------------- Iteration      1(   2)  ---------------------------------------


     EDDAV:  cpu time  945.8173: real time  946.1726
       DOS:  cpu time    0.0141: real time    0.0141
    --------------------------------------------
      LOOP:  cpu time  945.8314: real time  946.1867

 eigenvalue-minimisations  : 14736
 total energy-change (2. order) :-0.6819266E+04  (-0.5848403E+04)
 number of electron     868.0000000 magnetization     140.0000000
 augmentation part      868.0000000 magnetization     140.0000000

 Free energy of the ion-electron system (eV)
  ---------------------------------------------------
  alpha Z        PSCENC =       315.09161757
  Ewald energy   TEWEN  =    106158.79682208
  -Hartree energ DENC   =   -160727.07461077
  -exchange      EXHF   =         0.00000000
  -V(xc)+E(xc)   XCENC  =      2664.58711356
  PAW double counting   =     52118.65182442   -54801.79846914
  entropy T*S    EENTRO =        -0.02970927
  eigenvalues    EBANDS =     -6864.15863111
  atomic energy  EATOM  =     62143.14740716
  Solvation  Ediel_sol  =         0.00000000
  ---------------------------------------------------
  free energy    TOTEN  =      1007.21336450 eV

  energy without entropy =     1007.24307377  energy(sigma->0) =     1007.22821913


--------------------------------------------------------------------------------------------------------




--------------------------------------- Iteration      1(   3)  ---------------------------------------


     EDDAV:  cpu time 1086.5718: real time 1086.9545
       DOS:  cpu time    0.0148: real time    0.0148
    --------------------------------------------
      LOOP:  cpu time 1086.5866: real time 1086.9693

 eigenvalue-minimisations  : 17440
 total energy-change (2. order) :-0.1747091E+04  (-0.1716666E+04)
 number of electron     868.0000000 magnetization     140.0000000
 augmentation part      868.0000000 magnetization     140.0000000

 Free energy of the ion-electron system (eV)
  ---------------------------------------------------
  alpha Z        PSCENC =       315.09161757
  Ewald energy   TEWEN  =    106158.79682208
  -Hartree energ DENC   =   -160727.07461077
  -exchange      EXHF   =         0.00000000
  -V(xc)+E(xc)   XCENC  =      2664.58711356
  PAW double counting   =     52118.65182442   -54801.79846914
  entropy T*S    EENTRO =        -0.10519600
  eigenvalues    EBANDS =     -8611.17398451
  atomic energy  EATOM  =     62143.14740716
  Solvation  Ediel_sol  =         0.00000000
  ---------------------------------------------------
  free energy    TOTEN  =      -739.87747564 eV

  energy without entropy =     -739.77227964  energy(sigma->0) =     -739.82487764


--------------------------------------------------------------------------------------------------------




--------------------------------------- Iteration      1(   4)  ---------------------------------------


     EDDAV:  cpu time 1183.4206: real time 1183.8315
       DOS:  cpu time    0.0142: real time    0.0142
    --------------------------------------------
      LOOP:  cpu time 1183.4348: real time 1183.8457

 eigenvalue-minimisations  : 19280
 total energy-change (2. order) :-0.1639474E+03  (-0.1577774E+03)
 number of electron     868.0000000 magnetization     140.0000000
 augmentation part      868.0000000 magnetization     140.0000000

 Free energy of the ion-electron system (eV)
  ---------------------------------------------------
  alpha Z        PSCENC =       315.09161757
  Ewald energy   TEWEN  =    106158.79682208
  -Hartree energ DENC   =   -160727.07461077
  -exchange      EXHF   =         0.00000000
  -V(xc)+E(xc)   XCENC  =      2664.58711356
  PAW double counting   =     52118.65182442   -54801.79846914
  entropy T*S    EENTRO =        -0.13242874
  eigenvalues    EBANDS =     -8775.09412316
  atomic energy  EATOM  =     62143.14740716
  Solvation  Ediel_sol  =         0.00000000
  ---------------------------------------------------
  free energy    TOTEN  =      -903.82484703 eV

  energy without entropy =     -903.69241829  energy(sigma->0) =     -903.75863266


--------------------------------------------------------------------------------------------------------




--------------------------------------- Iteration      1(   5)  ---------------------------------------


     EDDAV:  cpu time 1230.9416: real time 1231.3813
       DOS:  cpu time    0.0147: real time    0.0147
    CHARGE:  cpu time   12.7152: real time   12.7330
    MIXING:  cpu time    0.0284: real time    0.0285
    --------------------------------------------
      LOOP:  cpu time 1243.7000: real time 1244.1576

 eigenvalue-minimisations  : 20048
 total energy-change (2. order) :-0.6326030E+01  (-0.5894053E+01)
 number of electron     868.0000370 magnetization     128.3519140
 augmentation part      113.3491296 magnetization     107.3195906

 Broyden mixing:
  rms(total) = 0.12558E+02    rms(broyden)= 0.12556E+02
  rms(prec ) = 0.13268E+02
  weight for this iteration     100.00

 Free energy of the ion-electron system (eV)
  ---------------------------------------------------
  alpha Z        PSCENC =       315.09161757
  Ewald energy   TEWEN  =    106158.79682208
  -Hartree energ DENC   =   -160727.07461077
  -exchange      EXHF   =         0.00000000
  -V(xc)+E(xc)   XCENC  =      2664.58711356
  PAW double counting   =     52118.65182442   -54801.79846914
  entropy T*S    EENTRO =        -0.20690262
  eigenvalues    EBANDS =     -8781.34567905
  atomic energy  EATOM  =     62143.14740716
  Solvation  Ediel_sol  =         0.00000000
  ---------------------------------------------------
  free energy    TOTEN  =      -910.15087679 eV

  energy without entropy =     -909.94397417  energy(sigma->0) =     -910.04742548


--------------------------------------------------------------------------------------------------------




--------------------------------------- Iteration      1(   6)  ---------------------------------------


    POTLOK:  cpu time    1.6000: real time    1.6009
    SETDIJ:  cpu time    0.0457: real time    0.0457
    EDDIAG:  cpu time   66.9425: real time   66.9950
  RMM-DIIS:  cpu time  618.2151: real time  618.4570
    ORTHCH:  cpu time   19.8756: real time   19.8803
       DOS:  cpu time    0.0135: real time    0.0136
    CHARGE:  cpu time   12.7652: real time   12.7692
    MIXING:  cpu time    0.0381: real time    0.0412
    --------------------------------------------
      LOOP:  cpu time  719.4956: real time  719.8030

 eigenvalue-minimisations  : 14012
 total energy-change (2. order) : 0.4601704E+02  (-0.2890056E+03)
 number of electron     868.0000700 magnetization     120.8402158
 augmentation part      176.9602095 magnetization     110.5696310

 Broyden mixing:
  rms(total) = 0.10697E+02    rms(broyden)= 0.10694E+02
  rms(prec ) = 0.11207E+02
  weight for this iteration     100.00

 eigenvalues of (default mixing * dielectric matrix)
  average eigenvalue GAMMA=   0.5246
  0.5246

 Free energy of the ion-electron system (eV)
  ---------------------------------------------------
  alpha Z        PSCENC =       315.09161757
  Ewald energy   TEWEN  =    106158.79682208
  -Hartree energ DENC   =   -159199.78012951
  -exchange      EXHF   =         0.00000000
  -V(xc)+E(xc)   XCENC  =      2763.52341709
  PAW double counting   =     63905.89745980   -66190.67126386
  entropy T*S    EENTRO =        -0.06860494
  eigenvalues    EBANDS =    -10760.07055920
  atomic energy  EATOM  =     62143.14740716
  Solvation  Ediel_sol  =         0.00000000
  ---------------------------------------------------
  free energy    TOTEN  =      -864.13383382 eV

  energy without entropy =     -864.06522889  energy(sigma->0) =     -864.09953136


--------------------------------------------------------------------------------------------------------




--------------------------------------- Iteration      1(   7)  ---------------------------------------


    POTLOK:  cpu time    1.6023: real time    1.6032
    SETDIJ:  cpu time    0.0459: real time    0.0459
    EDDIAG:  cpu time   66.8664: real time   66.8886
  RMM-DIIS:  cpu time  537.7554: real time  537.9350
    ORTHCH:  cpu time   19.9556: real time   19.9605
       DOS:  cpu time    0.0139: real time    0.0139
    CHARGE:  cpu time   12.7256: real time   12.7291
    MIXING:  cpu time    0.0315: real time    0.0324
    --------------------------------------------
      LOOP:  cpu time  638.9967: real time  639.2086

 eigenvalue-minimisations  : 12157
 total energy-change (2. order) : 0.2741961E+03  (-0.6812253E+02)
 number of electron     868.0000596 magnetization     102.5242151
 augmentation part      157.6342752 magnetization      82.5605115

 Broyden mixing:
  rms(total) = 0.49102E+01    rms(broyden)= 0.49101E+01
  rms(prec ) = 0.50703E+01
  weight for this iteration     100.00

 eigenvalues of (default mixing * dielectric matrix)
  average eigenvalue GAMMA=   0.9689
  1.2714  0.6663

 Free energy of the ion-electron system (eV)
  ---------------------------------------------------
  alpha Z        PSCENC =       315.09161757
  Ewald energy   TEWEN  =    106158.79682208
  -Hartree energ DENC   =   -160332.25420745
  -exchange      EXHF   =         0.00000000
  -V(xc)+E(xc)   XCENC  =      2833.13752353
  PAW double counting   =     71987.97900761   -74679.08414006
  entropy T*S    EENTRO =        -0.01451816
  eigenvalues    EBANDS =     -9016.73720056
  atomic energy  EATOM  =     62143.14740716
  Solvation  Ediel_sol  =         0.00000000
  ---------------------------------------------------
  free energy    TOTEN  =      -589.93768829 eV

  energy without entropy =     -589.92317013  energy(sigma->0) =     -589.93042921


--------------------------------------------------------------------------------------------------------




--------------------------------------- Iteration      1(   8)  ---------------------------------------


    POTLOK:  cpu time    1.6046: real time    1.6054
    SETDIJ:  cpu time    0.0460: real time    0.0460
    EDDIAG:  cpu time   66.7985: real time   66.8208
  RMM-DIIS:  cpu time  585.5427: real time  585.7364
    ORTHCH:  cpu time   19.8539: real time   19.8584
       DOS:  cpu time    0.0145: real time    0.0145
    CHARGE:  cpu time   12.7574: real time   12.7610
    MIXING:  cpu time    0.0321: real time    0.0357
    --------------------------------------------
      LOOP:  cpu time  686.6498: real time  686.8784

 eigenvalue-minimisations  : 13261
 total energy-change (2. order) :-0.6129559E+02  (-0.4474099E+02)
 number of electron     868.0000504 magnetization      91.2315132
 augmentation part      126.3856439 magnetization      83.7646484

 Broyden mixing:
  rms(total) = 0.55169E+01    rms(broyden)= 0.55153E+01
  rms(prec ) = 0.58707E+01
  weight for this iteration     100.00

 eigenvalues of (default mixing * dielectric matrix)
  average eigenvalue GAMMA=   1.0256
  1.9683  0.5543  0.5543

 Free energy of the ion-electron system (eV)
  ---------------------------------------------------
  alpha Z        PSCENC =       315.09161757
  Ewald energy   TEWEN  =    106158.79682208
  -Hartree energ DENC   =   -161500.51955495
  -exchange      EXHF   =         0.00000000
  -V(xc)+E(xc)   XCENC  =      2838.94930400
  PAW double counting   =     90174.74526367   -93105.52567349
  entropy T*S    EENTRO =        -0.07220193
  eigenvalues    EBANDS =     -7675.84626343
  atomic energy  EATOM  =     62143.14740716
  Solvation  Ediel_sol  =         0.00000000
  ---------------------------------------------------
  free energy    TOTEN  =      -651.23327933 eV

  energy without entropy =     -651.16107739  energy(sigma->0) =     -651.19717836


--------------------------------------------------------------------------------------------------------




--------------------------------------- Iteration      1(   9)  ---------------------------------------


    POTLOK:  cpu time    1.5911: real time    1.5917
    SETDIJ:  cpu time    0.0457: real time    0.0457
    EDDIAG:  cpu time   66.8725: real time   66.8938
  RMM-DIIS:  cpu time  570.8985: real time  571.0879
    ORTHCH:  cpu time   19.9035: real time   19.9312
       DOS:  cpu time    0.0132: real time    0.0132
    CHARGE:  cpu time   12.8101: real time   12.8138
    MIXING:  cpu time    0.0389: real time    0.0389
    --------------------------------------------
      LOOP:  cpu time  672.1734: real time  672.4162

 eigenvalue-minimisations  : 12932
 total energy-change (2. order) : 0.4540060E+02  (-0.4576260E+01)
 number of electron     868.0000536 magnetization      84.2717403
 augmentation part      140.9898775 magnetization      72.6321245

 Broyden mixing:
  rms(total) = 0.25453E+01    rms(broyden)= 0.25442E+01
  rms(prec ) = 0.27223E+01
  weight for this iteration     100.00

 eigenvalues of (default mixing * dielectric matrix)
  average eigenvalue GAMMA=   0.9772
  2.1622  0.6410  0.6410  0.4648

 Free energy of the ion-electron system (eV)
  ---------------------------------------------------
  alpha Z        PSCENC =       315.09161757
  Ewald energy   TEWEN  =    106158.79682208
  -Hartree energ DENC   =   -161296.89330021
  -exchange      EXHF   =         0.00000000
  -V(xc)+E(xc)   XCENC  =      2846.81942505
  PAW double counting   =     97243.43590409  -100107.57455677
  entropy T*S    EENTRO =        -0.07922442
  eigenvalues    EBANDS =     -7908.57677368
  atomic energy  EATOM  =     62143.14740716
  Solvation  Ediel_sol  =         0.00000000
  ---------------------------------------------------
  free energy    TOTEN  =      -605.83267914 eV

  energy without entropy =     -605.75345471  energy(sigma->0) =     -605.79306692


--------------------------------------------------------------------------------------------------------




--------------------------------------- Iteration      1(  10)  ---------------------------------------


    POTLOK:  cpu time    1.6038: real time    1.6211
    SETDIJ:  cpu time    0.0457: real time    0.0457
    EDDIAG:  cpu time   66.7217: real time   66.7435
  RMM-DIIS:  cpu time  538.0239: real time  538.2068
    ORTHCH:  cpu time   19.9118: real time   19.9169
       DOS:  cpu time    0.0148: real time    0.0148
    CHARGE:  cpu time   12.7732: real time   12.7770
    MIXING:  cpu time    0.0405: real time    0.0405
    --------------------------------------------
      LOOP:  cpu time  639.1355: real time  639.3663

 eigenvalue-minimisations  : 12177
 total energy-change (2. order) :-0.3404996E+02  (-0.2757913E+01)
 number of electron     868.0000549 magnetization      73.3945506
 augmentation part      146.3188033 magnetization      61.5543081

 Broyden mixing:
  rms(total) = 0.18074E+01    rms(broyden)= 0.18063E+01
  rms(prec ) = 0.19940E+01
  weight for this iteration     100.00

 eigenvalues of (default mixing * dielectric matrix)
  average eigenvalue GAMMA=   0.9687
  2.4547  0.9106  0.5829  0.5829  0.3123

 Free energy of the ion-electron system (eV)
  ---------------------------------------------------
  alpha Z        PSCENC =       315.09161757
  Ewald energy   TEWEN  =    106158.79682208
  -Hartree energ DENC   =   -161219.29690499
  -exchange      EXHF   =         0.00000000
  -V(xc)+E(xc)   XCENC  =      2814.62060527
  PAW double counting   =     99608.78973848  -102427.62327489
  entropy T*S    EENTRO =        -0.07802554
  eigenvalues    EBANDS =     -8033.33062904
  atomic energy  EATOM  =     62143.14740716
  Solvation  Ediel_sol  =         0.00000000
  ---------------------------------------------------
  free energy    TOTEN  =      -639.88264391 eV

  energy without entropy =     -639.80461837  energy(sigma->0) =     -639.84363114


--------------------------------------------------------------------------------------------------------




--------------------------------------- Iteration      1(  11)  ---------------------------------------


    POTLOK:  cpu time    1.6022: real time    1.6027
    SETDIJ:  cpu time    0.0467: real time    0.0467
    EDDIAG:  cpu time   66.6667: real time   66.6884
  RMM-DIIS:  cpu time  545.3937: real time  545.5771
    ORTHCH:  cpu time   19.8706: real time   19.8763
       DOS:  cpu time    0.0146: real time    0.0147
    CHARGE:  cpu time   12.7800: real time   12.7838
    MIXING:  cpu time    0.0396: real time    0.0396
    --------------------------------------------
      LOOP:  cpu time  646.4141: real time  646.6292

 eigenvalue-minimisations  : 12352
 total energy-change (2. order) :-0.5090225E+02  (-0.3030658E+01)
 number of electron     868.0000567 magnetization      63.4536591
 augmentation part      151.3997895 magnetization      49.4737665

 Broyden mixing:
  rms(total) = 0.14848E+01    rms(broyden)= 0.14843E+01
  rms(prec ) = 0.15723E+01
  weight for this iteration     100.00

 eigenvalues of (default mixing * dielectric matrix)
  average eigenvalue GAMMA=   1.0067
  2.6719  1.2730  0.6640  0.5842  0.5842  0.2631

 Free energy of the ion-electron system (eV)
  ---------------------------------------------------
  alpha Z        PSCENC =       315.09161757
  Ewald energy   TEWEN  =    106158.79682208
  -Hartree energ DENC   =   -161161.82081668
  -exchange      EXHF   =         0.00000000
  -V(xc)+E(xc)   XCENC  =      2776.84194206
  PAW double counting   =    102268.13102033  -105035.86650413
  entropy T*S    EENTRO =        -0.05158611
  eigenvalues    EBANDS =     -8155.05479514
  atomic energy  EATOM  =     62143.14740716
  Solvation  Ediel_sol  =         0.00000000
  ---------------------------------------------------
  free energy    TOTEN  =      -690.78489287 eV

  energy without entropy =     -690.73330676  energy(sigma->0) =     -690.75909982


--------------------------------------------------------------------------------------------------------




--------------------------------------- Iteration      1(  12)  ---------------------------------------


    POTLOK:  cpu time    1.6124: real time    1.6131
    SETDIJ:  cpu time    0.0458: real time    0.0458
    EDDIAG:  cpu time   66.6735: real time   66.6953
  RMM-DIIS:  cpu time  553.2672: real time  553.4522
    ORTHCH:  cpu time   19.9534: real time   19.9581
       DOS:  cpu time    0.0149: real time    0.0149
    CHARGE:  cpu time   12.7304: real time   12.7340
    MIXING:  cpu time    0.0533: real time    0.0533
    --------------------------------------------
      LOOP:  cpu time  654.3508: real time  654.5667

 eigenvalue-minimisations  : 12531
 total energy-change (2. order) :-0.4238275E+02  (-0.2105988E+01)
 number of electron     868.0000564 magnetization      51.1955617
 augmentation part      149.3872258 magnetization      37.5025662

 Broyden mixing:
  rms(total) = 0.96808E+00    rms(broyden)= 0.96802E+00
  rms(prec ) = 0.10104E+01
  weight for this iteration     100.00

 eigenvalues of (default mixing * dielectric matrix)
  average eigenvalue GAMMA=   1.0634
  2.2968  2.2968  0.6726  0.6726  0.6207  0.6207  0.2635

 Free energy of the ion-electron system (eV)
  ---------------------------------------------------
  alpha Z        PSCENC =       315.09161757
  Ewald energy   TEWEN  =    106158.79682208
  -Hartree energ DENC   =   -161247.95269776
  -exchange      EXHF   =         0.00000000
  -V(xc)+E(xc)   XCENC  =      2747.70207319
  PAW double counting   =    102725.19110292  -105488.57526529
  entropy T*S    EENTRO =        -0.05433942
  eigenvalues    EBANDS =     -8086.51436766
  atomic energy  EATOM  =     62143.14740716
  Solvation  Ediel_sol  =         0.00000000
  ---------------------------------------------------
  free energy    TOTEN  =      -733.16764721 eV

  energy without entropy =     -733.11330780  energy(sigma->0) =     -733.14047750


--------------------------------------------------------------------------------------------------------




--------------------------------------- Iteration      1(  13)  ---------------------------------------


    POTLOK:  cpu time    1.5982: real time    1.5988
    SETDIJ:  cpu time    0.0455: real time    0.0455
    EDDIAG:  cpu time   66.6027: real time   66.6240
  RMM-DIIS:  cpu time  565.3691: real time  565.5739
    ORTHCH:  cpu time   19.8469: real time   19.8525
       DOS:  cpu time    0.0149: real time    0.0149
    CHARGE:  cpu time   12.7726: real time   12.7762
    MIXING:  cpu time    0.0526: real time    0.0527
    --------------------------------------------
      LOOP:  cpu time  666.3025: real time  666.5383

 eigenvalue-minimisations  : 12820
 total energy-change (2. order) :-0.4720709E+02  (-0.3530988E+01)
 number of electron     868.0000553 magnetization      45.7521752
 augmentation part      144.9658885 magnetization      36.6324216

 Broyden mixing:
  rms(total) = 0.89755E+00    rms(broyden)= 0.89715E+00
  rms(prec ) = 0.93156E+00
  weight for this iteration     100.00

 eigenvalues of (default mixing * dielectric matrix)
  average eigenvalue GAMMA=   1.0385
  2.4251  2.4251  0.7596  0.7596  0.5930  0.5930  0.4890  0.2637

 Free energy of the ion-electron system (eV)
  ---------------------------------------------------
  alpha Z        PSCENC =       315.09161757
  Ewald energy   TEWEN  =    106158.79682208
  -Hartree energ DENC   =   -161321.56668001
  -exchange      EXHF   =         0.00000000
  -V(xc)+E(xc)   XCENC  =      2715.05802916
  PAW double counting   =    101183.44410540  -103947.89703670
  entropy T*S    EENTRO =        -0.06943113
  eigenvalues    EBANDS =     -8026.37957543
  atomic energy  EATOM  =     62143.14740716
  Solvation  Ediel_sol  =         0.00000000
  ---------------------------------------------------
  free energy    TOTEN  =      -780.37474192 eV

  energy without entropy =     -780.30531079  energy(sigma->0) =     -780.34002636


[...]
       DOS:  cpu time    0.0152: real time    0.0152
    CHARGE:  cpu time   12.9061: real time   12.9095
    MIXING:  cpu time    0.0298: real time    0.0299
    --------------------------------------------
      LOOP:  cpu time  727.4742: real time  727.7268

 eigenvalue-minimisations  : 14163
 total energy-change (2. order) :-0.4256095E-02  (-0.4954553E-02)
 number of electron     868.0000491 magnetization       0.0567855
 augmentation part      146.7606387 magnetization      -0.0101035

 Broyden mixing:
  rms(total) = 0.17606E-01    rms(broyden)= 0.17603E-01
  rms(prec ) = 0.18829E-01
  weight for this iteration     100.00

 eigenvalues of (default mixing * dielectric matrix)
  average eigenvalue GAMMA=   0.7736
  0.7736

 Free energy of the ion-electron system (eV)
  ---------------------------------------------------
  alpha Z        PSCENC =       315.09161757
  Ewald energy   TEWEN  =    106288.26453475
  -Hartree energ DENC   =   -161093.15480341
  -exchange      EXHF   =         0.00000000
  -V(xc)+E(xc)   XCENC  =      2669.38705215
  PAW double counting   =     98653.02671055  -101409.42614156
  entropy T*S    EENTRO =        -0.10618311
  eigenvalues    EBANDS =     -8394.53318019
  atomic energy  EATOM  =     62143.14740716
  Solvation  Ediel_sol  =         0.00000000
  ---------------------------------------------------
  free energy    TOTEN  =      -828.30298610 eV

  energy without entropy =     -828.19680299  energy(sigma->0) =     -828.24989455


--------------------------------------------------------------------------------------------------------




--------------------------------------- Iteration     11(   3)  ---------------------------------------


    POTLOK:  cpu time    1.6038: real time    1.6044
    SETDIJ:  cpu time    0.0461: real time    0.0461
    EDDIAG:  cpu time   66.9963: real time   67.0185
  RMM-DIIS:  cpu time  620.3921: real time  620.6100
    ORTHCH:  cpu time   19.9051: real time   19.9103
       DOS:  cpu time    0.0147: real time    0.0148
    CHARGE:  cpu time   12.8469: real time   12.8503
    MIXING:  cpu time    0.0303: real time    0.0303
    --------------------------------------------
      LOOP:  cpu time  721.8353: real time  722.0847

 eigenvalue-minimisations  : 14037
 total energy-change (2. order) :-0.4371482E-03  (-0.3071526E-03)
 number of electron     868.0000491 magnetization       0.0559769
 augmentation part      146.7225062 magnetization       0.0250459

 Broyden mixing:
  rms(total) = 0.20669E-01    rms(broyden)= 0.20666E-01
  rms(prec ) = 0.25236E-01
  weight for this iteration     100.00

 eigenvalues of (default mixing * dielectric matrix)
  average eigenvalue GAMMA=   0.4949
  0.7197  0.2701

 Free energy of the ion-electron system (eV)
  ---------------------------------------------------
  alpha Z        PSCENC =       315.09161757
  Ewald energy   TEWEN  =    106288.26453475
  -Hartree energ DENC   =   -161094.17212204
  -exchange      EXHF   =         0.00000000
  -V(xc)+E(xc)   XCENC  =      2669.40496630
  PAW double counting   =     98652.75814592  -101409.34939652
  entropy T*S    EENTRO =        -0.10070565
  eigenvalues    EBANDS =     -8393.34787073
  atomic energy  EATOM  =     62143.14740716
  Solvation  Ediel_sol  =         0.00000000
  ---------------------------------------------------
  free energy    TOTEN  =      -828.30342325 eV

  energy without entropy =     -828.20271760  energy(sigma->0) =     -828.25307043


--------------------------------------------------------------------------------------------------------




--------------------------------------- Iteration     11(   4)  ---------------------------------------


    POTLOK:  cpu time    1.6143: real time    1.6149
    SETDIJ:  cpu time    0.0460: real time    0.0460
    EDDIAG:  cpu time   66.9892: real time   67.0094
  RMM-DIIS:  cpu time  560.2464: real time  560.4606
    ORTHCH:  cpu time   19.9342: real time   19.9399
       DOS:  cpu time    0.0156: real time    0.0156
    CHARGE:  cpu time   12.8213: real time   12.8252
    MIXING:  cpu time    0.0361: real time    0.0361
    --------------------------------------------
      LOOP:  cpu time  661.7031: real time  661.9477

 eigenvalue-minimisations  : 12651
 total energy-change (2. order) : 0.4341233E-03  (-0.7531388E-04)
 number of electron     868.0000491 magnetization       0.0556579
 augmentation part      146.7440303 magnetization       0.0007624

 Broyden mixing:
  rms(total) = 0.15308E-01    rms(broyden)= 0.15306E-01
  rms(prec ) = 0.15891E-01
  weight for this iteration     100.00

 eigenvalues of (default mixing * dielectric matrix)
  average eigenvalue GAMMA=   0.5719
  0.7373  0.7373  0.2412

 Free energy of the ion-electron system (eV)
  ---------------------------------------------------
  alpha Z        PSCENC =       315.09161757
  Ewald energy   TEWEN  =    106288.26453475
  -Hartree energ DENC   =   -161093.62292077
  -exchange      EXHF   =         0.00000000
  -V(xc)+E(xc)   XCENC  =      2669.39790612
  PAW double counting   =     98652.03310120  -101408.53733052
  entropy T*S    EENTRO =        -0.10442202
  eigenvalues    EBANDS =     -8393.97288260
  atomic energy  EATOM  =     62143.14740716
  Solvation  Ediel_sol  =         0.00000000
  ---------------------------------------------------
  free energy    TOTEN  =      -828.30298913 eV

  energy without entropy =     -828.19856710  energy(sigma->0) =     -828.25077811


--------------------------------------------------------------------------------------------------------




--------------------------------------- Iteration     11(   5)  ---------------------------------------


    POTLOK:  cpu time    1.6073: real time    1.6081
    SETDIJ:  cpu time    0.0457: real time    0.0457
    EDDIAG:  cpu time   66.8680: real time   66.8902
  RMM-DIIS:  cpu time  542.3580: real time  542.5520
    ORTHCH:  cpu time   19.9450: real time   19.9501
       DOS:  cpu time    0.0153: real time    0.0153
    CHARGE:  cpu time   12.8168: real time   12.8200
    MIXING:  cpu time    0.0390: real time    0.0391
    --------------------------------------------
      LOOP:  cpu time  643.6951: real time  643.9204

 eigenvalue-minimisations  : 12251
 total energy-change (2. order) : 0.7812658E-04  (-0.1753610E-04)
 number of electron     868.0000491 magnetization       0.0551051
 augmentation part      146.7503072 magnetization      -0.0031549

 Broyden mixing:
  rms(total) = 0.13304E-01    rms(broyden)= 0.13303E-01
  rms(prec ) = 0.14091E-01
  weight for this iteration     100.00

 eigenvalues of (default mixing * dielectric matrix)
  average eigenvalue GAMMA=   0.7841
  1.3231  1.3231  0.2627  0.2275

 Free energy of the ion-electron system (eV)
  ---------------------------------------------------
  alpha Z        PSCENC =       315.09161757
  Ewald energy   TEWEN  =    106288.26453475
  -Hartree energ DENC   =   -161093.44635546
  -exchange      EXHF   =         0.00000000
  -V(xc)+E(xc)   XCENC  =      2669.39437351
  PAW double counting   =     98651.57809875  -101408.04679955
  entropy T*S    EENTRO =        -0.10532882
  eigenvalues    EBANDS =     -8394.18045890
  atomic energy  EATOM  =     62143.14740716
  Solvation  Ediel_sol  =         0.00000000
  ---------------------------------------------------
  free energy    TOTEN  =      -828.30291100 eV

  energy without entropy =     -828.19758218  energy(sigma->0) =     -828.25024659


--------------------------------------------------------------------------------------------------------




--------------------------------------- Iteration     11(   6)  ---------------------------------------


    POTLOK:  cpu time    1.5965: real time    1.5970
    SETDIJ:  cpu time    0.0460: real time    0.0460
    EDDIAG:  cpu time   66.7227: real time   66.7434
  RMM-DIIS:  cpu time  584.6438: real time  584.8734
    ORTHCH:  cpu time   19.9365: real time   19.9418
       DOS:  cpu time    0.0155: real time    0.0155
    CHARGE:  cpu time   12.8699: real time   12.8734
    MIXING:  cpu time    0.0405: real time    0.0405
    --------------------------------------------
      LOOP:  cpu time  685.8715: real time  686.1311

 eigenvalue-minimisations  : 13223
 total energy-change (2. order) : 0.1561487E-03  (-0.7967659E-04)
 number of electron     868.0000491 magnetization       0.0544133
 augmentation part      146.7510970 magnetization       0.0002908

 Broyden mixing:
  rms(total) = 0.53597E-02    rms(broyden)= 0.53576E-02
  rms(prec ) = 0.58637E-02
  weight for this iteration     100.00

 eigenvalues of (default mixing * dielectric matrix)
  average eigenvalue GAMMA=   0.8716
  2.0756  1.2502  0.5487  0.2814  0.2023

 Free energy of the ion-electron system (eV)
  ---------------------------------------------------
  alpha Z        PSCENC =       315.09161757
  Ewald energy   TEWEN  =    106288.26453475
  -Hartree energ DENC   =   -161093.58226641
  -exchange      EXHF   =         0.00000000
  -V(xc)+E(xc)   XCENC  =      2669.39287697
  PAW double counting   =     98650.63221362  -101407.09797992
  entropy T*S    EENTRO =        -0.10461808
  eigenvalues    EBANDS =     -8394.04654050
  atomic energy  EATOM  =     62143.14740716
  Solvation  Ediel_sol  =         0.00000000
  ---------------------------------------------------
  free energy    TOTEN  =      -828.30275485 eV

  energy without entropy =     -828.19813677  energy(sigma->0) =     -828.25044581


--------------------------------------------------------------------------------------------------------




--------------------------------------- Iteration     11(   7)  ---------------------------------------


    POTLOK:  cpu time    1.5953: real time    1.5960
    SETDIJ:  cpu time    0.0458: real time    0.0458
    EDDIAG:  cpu time   66.8763: real time   66.8972
  RMM-DIIS:  cpu time  574.6920: real time  574.8931
    ORTHCH:  cpu time   19.9417: real time   19.9470
       DOS:  cpu time    0.0155: real time    0.0155
    CHARGE:  cpu time   12.8323: real time   12.8358
    MIXING:  cpu time    0.0451: real time    0.0451
    --------------------------------------------
      LOOP:  cpu time  676.0440: real time  676.2754

 eigenvalue-minimisations  : 13005
 total energy-change (2. order) : 0.1650956E-04  (-0.2678976E-04)
 number of electron     868.0000491 magnetization       0.0543432
 augmentation part      146.7443275 magnetization      -0.0006171

 Broyden mixing:
  rms(total) = 0.32278E-02    rms(broyden)= 0.32272E-02
  rms(prec ) = 0.36432E-02
  weight for this iteration     100.00

 eigenvalues of (default mixing * dielectric matrix)
  average eigenvalue GAMMA=   0.7755
  2.0702  1.2429  0.4344  0.4344  0.2037  0.2677

 Free energy of the ion-electron system (eV)
  ---------------------------------------------------
  alpha Z        PSCENC =       315.09161757
  Ewald energy   TEWEN  =    106288.26453475
  -Hartree energ DENC   =   -161093.77647363
  -exchange      EXHF   =         0.00000000
  -V(xc)+E(xc)   XCENC  =      2669.40001648
  PAW double counting   =     98650.18495668  -101406.71139230
  entropy T*S    EENTRO =        -0.10495196
  eigenvalues    EBANDS =     -8393.79845308
  atomic energy  EATOM  =     62143.14740716
  Solvation  Ediel_sol  =         0.00000000
  ---------------------------------------------------
  free energy    TOTEN  =      -828.30273834 eV

  energy without entropy =     -828.19778638  energy(sigma->0) =     -828.25026236


--------------------------------------------------------------------------------------------------------




--------------------------------------- Iteration     11(   8)  ---------------------------------------


    POTLOK:  cpu time    1.6179: real time    1.6184
    SETDIJ:  cpu time    0.0455: real time    0.0456
    EDDIAG:  cpu time   66.8160: real time   66.8359
  RMM-DIIS:  cpu time  456.4737: real time  456.8462
    ORTHCH:  cpu time   19.8983: real time   19.9206
       DOS:  cpu time    0.0156: real time    0.0156
    CHARGE:  cpu time   12.8863: real time   12.8899
    MIXING:  cpu time    0.0439: real time    0.0439
    --------------------------------------------
      LOOP:  cpu time  557.7972: real time  558.2162

 eigenvalue-minimisations  : 10259
 total energy-change (2. order) : 0.9585106E-05  (-0.1714609E-05)
 number of electron     868.0000491 magnetization       0.0541144
 augmentation part      146.7460113 magnetization       0.0008079

 Broyden mixing:
  rms(total) = 0.27635E-02    rms(broyden)= 0.27634E-02
  rms(prec ) = 0.30108E-02
  weight for this iteration     100.00

 eigenvalues of (default mixing * dielectric matrix)
  average eigenvalue GAMMA=   0.7727
  2.0637  1.2419  0.6331  0.6331  0.2024  0.2761  0.3588

 Free energy of the ion-electron system (eV)
  ---------------------------------------------------
  alpha Z        PSCENC =       315.09161757
  Ewald energy   TEWEN  =    106288.26453475
  -Hartree energ DENC   =   -161093.73891795
  -exchange      EXHF   =         0.00000000
  -V(xc)+E(xc)   XCENC  =      2669.39784522
  PAW double counting   =     98650.06274613  -101406.57295746
  entropy T*S    EENTRO =        -0.10470884
  eigenvalues    EBANDS =     -8393.85029532
  atomic energy  EATOM  =     62143.14740716
  Solvation  Ediel_sol  =         0.00000000
  ---------------------------------------------------
  free energy    TOTEN  =      -828.30272876 eV

  energy without entropy =     -828.19801991  energy(sigma->0) =     -828.25037433


--------------------------------------------------------------------------------------------------------




--------------------------------------- Iteration     11(   9)  ---------------------------------------


    POTLOK:  cpu time    1.6021: real time    1.6026
    SETDIJ:  cpu time    0.0459: real time    0.0459
    EDDIAG:  cpu time   66.7820: real time   66.8368
  RMM-DIIS:  cpu time  419.9350: real time  420.1814
    ORTHCH:  cpu time   19.8857: real time   19.9082
       DOS:  cpu time    0.0152: real time    0.0152
    CHARGE:  cpu time   12.8577: real time   12.8639
    MIXING:  cpu time    0.0502: real time    0.0502
    --------------------------------------------
      LOOP:  cpu time  521.1738: real time  521.5044

 eigenvalue-minimisations  :  9428
 total energy-change (2. order) : 0.1187899E-04  (-0.1664031E-05)
 number of electron     868.0000491 magnetization       0.0532985
 augmentation part      146.7469957 magnetization      -0.0003031

 Broyden mixing:
  rms(total) = 0.23530E-02    rms(broyden)= 0.23528E-02
  rms(prec ) = 0.26430E-02
  weight for this iteration     100.00

 eigenvalues of (default mixing * dielectric matrix)
  average eigenvalue GAMMA=   0.8871
  2.1164  1.2648  1.2648  1.2184  0.4758  0.2031  0.2952  0.2583

 Free energy of the ion-electron system (eV)
  ---------------------------------------------------
  alpha Z        PSCENC =       315.09161757
  Ewald energy   TEWEN  =    106288.26453475
  -Hartree energ DENC   =   -161093.70943604
  -exchange      EXHF   =         0.00000000
  -V(xc)+E(xc)   XCENC  =      2669.39721080
  PAW double counting   =     98649.95391454  -101406.45727632
  entropy T*S    EENTRO =        -0.10479098
  eigenvalues    EBANDS =     -8393.88589835
  atomic energy  EATOM  =     62143.14740716
  Solvation  Ediel_sol  =         0.00000000
  ---------------------------------------------------
  free energy    TOTEN  =      -828.30271688 eV

  energy without entropy =     -828.19792590  energy(sigma->0) =     -828.25032139


--------------------------------------------------------------------------------------------------------




--------------------------------------- Iteration     11(  10)  ---------------------------------------


    POTLOK:  cpu time    1.6052: real time    1.6059
    SETDIJ:  cpu time    0.0458: real time    0.0458
    EDDIAG:  cpu time   66.8203: real time   66.8593
  RMM-DIIS:  cpu time  476.0036: real time  476.1946
    ORTHCH:  cpu time   19.8838: real time   19.9059
       DOS:  cpu time    0.0155: real time    0.0155
    CHARGE:  cpu time   12.8883: real time   12.8968
    MIXING:  cpu time    0.0500: real time    0.0500
    --------------------------------------------
      LOOP:  cpu time  577.3124: real time  577.5738

 eigenvalue-minimisations  : 10726
 total energy-change (2. order) : 0.1381223E-04  (-0.9956210E-05)
 number of electron     868.0000491 magnetization       0.0530384
 augmentation part      146.7446843 magnetization      -0.0002002

 Broyden mixing:
  rms(total) = 0.13894E-02    rms(broyden)= 0.13888E-02
  rms(prec ) = 0.18615E-02
  weight for this iteration     100.00

 eigenvalues of (default mixing * dielectric matrix)
  average eigenvalue GAMMA=   0.8529
  2.2779  1.3284  1.3284  1.1398  0.5259  0.3451  0.2029  0.2639  0.2639

 Free energy of the ion-electron system (eV)
  ---------------------------------------------------
  alpha Z        PSCENC =       315.09161757
  Ewald energy   TEWEN  =    106288.26453475
  -Hartree energ DENC   =   -161093.75457241
  -exchange      EXHF   =         0.00000000
  -V(xc)+E(xc)   XCENC  =      2669.39944770
  PAW double counting   =     98649.77236264  -101406.29139410
  entropy T*S    EENTRO =        -0.10481059
  eigenvalues    EBANDS =     -8393.82729579
  atomic energy  EATOM  =     62143.14740716
  Solvation  Ediel_sol  =         0.00000000
  ---------------------------------------------------
  free energy    TOTEN  =      -828.30270306 eV

  energy without entropy =     -828.19789248  energy(sigma->0) =     -828.25029777


--------------------------------------------------------------------------------------------------------




--------------------------------------- Iteration     11(  11)  ---------------------------------------


    POTLOK:  cpu time    1.6004: real time    1.6009
    SETDIJ:  cpu time    0.0460: real time    0.0460
    EDDIAG:  cpu time   66.7673: real time   66.8108
  RMM-DIIS:  cpu time  410.2540: real time  410.4914
    ORTHCH:  cpu time   19.8863: real time   19.8916
       DOS:  cpu time    0.0152: real time    0.0152
    CHARGE:  cpu time   12.8921: real time   12.8957
    MIXING:  cpu time    0.0615: real time    0.0615
    --------------------------------------------
      LOOP:  cpu time  511.5228: real time  511.8131

 eigenvalue-minimisations  :  9202
 total energy-change (2. order) : 0.5225593E-07  (-0.1474499E-05)
 number of electron     868.0000491 magnetization       0.0528444
 augmentation part      146.7445869 magnetization       0.0008537

 Broyden mixing:
  rms(total) = 0.70699E-03    rms(broyden)= 0.70605E-03
  rms(prec ) = 0.87473E-03
  weight for this iteration     100.00

 eigenvalues of (default mixing * dielectric matrix)
  average eigenvalue GAMMA=   0.8183
  2.4219  1.3126  1.3126  1.0560  0.6551  0.4444  0.2991  0.2659  0.2027  0.2126

 Free energy of the ion-electron system (eV)
  ---------------------------------------------------
  alpha Z        PSCENC =       315.09161757
  Ewald energy   TEWEN  =    106288.26453475
  -Hartree energ DENC   =   -161093.75862875
  -exchange      EXHF   =         0.00000000
  -V(xc)+E(xc)   XCENC  =      2669.39903566
  PAW double counting   =     98649.68863529  -101406.20549971
  entropy T*S    EENTRO =        -0.10464433
  eigenvalues    EBANDS =     -8393.82516065
  atomic energy  EATOM  =     62143.14740716
  Solvation  Ediel_sol  =         0.00000000
  ---------------------------------------------------
  free energy    TOTEN  =      -828.30270301 eV

  energy without entropy =     -828.19805869  energy(sigma->0) =     -828.25038085


--------------------------------------------------------------------------------------------------------




--------------------------------------- Iteration     11(  12)  ---------------------------------------


    POTLOK:  cpu time    1.6067: real time    1.6077
    SETDIJ:  cpu time    0.0460: real time    0.0460
    EDDIAG:  cpu time   66.7786: real time   66.7994
