<?xml version="1.0" encoding="ISO-8859-1"?>
<modeling>
 <generator>
  <i name="program" type="string">vasp </i>
  <i name="version" type="string">5.4.4.18Apr17-6-g9f103f2a35  </i>
  <i name="subversion" type="string">(build Apr 28 2017 10:40:22) complex            parallel </i>
  <i name="platform" type="string">Intel-16.0.3.210-OMPI-1.10.2 </i>
  <i name="date" type="string">2019 11 13 </i>
  <i name="time" type="string">13:06:26 </i>
 </generator>
 <incar>
  <i type="string" name="SYSTEM"> membrane</i>
  <i type="int" name="ISTART">     0</i>
  <i type="string" name="PREC">normal</i>
  <i type="string" name="ALGO"> Fast</i>
  <i type="int" name="ISPIN">     2</i>
  <i type="int" name="ICHARG">     2</i>
  <i type="int" name="IBRION">     2</i>
  <i name="EDIFF">      0.00000100</i>
  <i name="EDIFFG">     -0.01000000</i>
  <i type="int" name="NSW">  1000</i>
  <i name="ENCUT">    500.00000000</i>
  <i type="logical" name="LPLANE"> T  </i>
  <i type="int" name="ISMEAR">     0</i>
  <i name="SIGMA">      0.05000000</i>
  <i type="logical" name="LWAVE"> F  </i>
  <i type="logical" name="LCHARG"> F  </i>
  <v type="int" name="KPOINT_BSE">    -1     0     0     0</v>
 </incar>
 <structure name="primitive_cell" >
  <crystal>
   <varray name="basis" >
    <v>      26.26650047       0.00000000       0.00000000 </v>
    <v>     -13.13288029      22.74974710       0.00000000 </v>
    <v>       0.00000000       0.00000000      20.20179939 </v>
   </varray>
   <i name="volume">  12071.71134534 </i>
   <varray name="rec_basis" >
    <v>       0.03807131       0.02197765       0.00000000 </v>
    <v>       0.00000000       0.04395653       0.00000000 </v>
    <v>       0.00000000       0.00000000       0.04950054 </v>
   </varray>
  </crystal>
  <varray name="positions" >
   <v>       0.02985246       0.30215457      -0.49999998 </v>
   <v>       0.06091254       0.36429856      -0.49999998 </v>
   <v>      -0.03230010       0.27107686      -0.49999998 </v>
   <v>       0.06791597       0.26411151      -0.49999998 </v>
   <v>      -0.06338041       0.30214841      -0.49999998 </v>
   <v>       0.02982955       0.39536703      -0.49999998 </v>
   <v>       0.13702038       0.40235392      -0.49999998 </v>
   <v>      -0.07035531       0.19497799      -0.49999998 </v>
   <v>      -0.03232083       0.36429064      -0.49999998 </v>
   <v>       0.16543303       0.33322217      -0.49999998 </v>
   <v>      -0.00123533       0.16657372      -0.49999998 </v>
   <v>       0.06787327       0.47146194      -0.49999998 </v>
   <v>      -0.13948435       0.26408865      -0.49999998 </v>
   <v>      -0.07036866       0.40234601      -0.49999998 </v>
   <v>       0.16540818       0.49988380      -0.49999998 </v>
   <v>      -0.16792606       0.16654691      -0.49999998 </v>
   <v>       0.19384621       0.26408689      -0.49999998 </v>
   <v>       0.06787467       0.13812813      -0.49999998 </v>
   <v>       0.26296366       0.40234777      -0.49999998 </v>
   <v>      -0.07036838       0.06901527      -0.49999998 </v>
   <v>      -0.16789917       0.33322217      -0.49999998 </v>
   <v>      -0.00123533       0.49990578      -0.49999998 </v>
   <v>       0.26297521      -0.47168951      -0.49999998 </v>
   <v>      -0.19631450       0.06901879      -0.49999998 </v>
   <v>       0.16540875       0.16654603      -0.49999998 </v>
   <v>       0.26995370       0.30214841      -0.49999998 </v>
   <v>       0.02982867       0.06203322      -0.49999998 </v>
   <v>       0.30101454       0.36429240      -0.49999998 </v>
   <v>      -0.03231942       0.03095683      -0.49999998 </v>
   <v>       0.19384798      -0.40257446      -0.49999998 </v>
   <v>      -0.26545769       0.13812857      -0.49999998 </v>
   <v>       0.33209655       0.49990666      -0.49999998 </v>
   <v>      -0.16789920      -0.00010845      -0.49999998 </v>
   <v>      -0.26541503       0.26411239      -0.49999998 </v>
   <v>       0.06791619      -0.40255600      -0.49999998 </v>
   <v>       0.30103537       0.27107730      -0.49999998 </v>
   <v>       0.06091427       0.03096386      -0.49999998 </v>
   <v>       0.30103621      -0.39558669      -0.49999998 </v>
   <v>      -0.27241689       0.03096518      -0.49999998 </v>
   <v>      -0.19631280       0.40235348      -0.49999998 </v>
   <v>      -0.07035667      -0.47169039      -0.49999998 </v>
   <v>       0.36316592       0.39536703      -0.49999998 </v>
   <v>       0.26995278      -0.36451909      -0.49999998 </v>
   <v>      -0.06338121      -0.03118527      -0.49999998 </v>
   <v>      -0.30350098       0.06203146      -0.49999998 </v>
   <v>       0.26297787       0.19497843      -0.49999998 </v>
   <v>       0.13701868       0.06901923      -0.49999998 </v>
   <v>      -0.33456561       0.16657372      -0.49999998 </v>
   <v>       0.16543317      -0.33344094      -0.49999998 </v>
   <v>       0.40120720       0.47146238      -0.49999998 </v>
   <v>      -0.13948378      -0.06924152      -0.49999998 </v>
   <v>      -0.30347822       0.30215457      -0.49999998 </v>
   <v>       0.36318715       0.30215501      -0.49999998 </v>
   <v>       0.02985096      -0.03117824      -0.49999998 </v>
   <v>       0.02985094      -0.36451338      -0.49999998 </v>
   <v>      -0.30347934      -0.03117824      -0.49999998 </v>
   <v>       0.36318645      -0.36451206      -0.49999998 </v>
   <v>       0.39424689       0.36429680      -0.49999998 </v>
   <v>      -0.27241900       0.36429987      -0.49999998 </v>
   <v>      -0.03230020      -0.39558976      -0.49999998 </v>
   <v>      -0.03230030      -0.06225639      -0.49999998 </v>
   <v>      -0.26541459      -0.06922262      -0.49999998 </v>
   <v>       0.40124843      -0.40255512      -0.49999998 </v>
   <v>      -0.16792669       0.49988380      -0.49999998 </v>
   <v>       0.30101744      -0.30237203      -0.49999998 </v>
   <v>      -0.36565161       0.03095683      -0.49999998 </v>
   <v>      -0.27777211       0.31985894      -0.29334315 </v>
   <v>      -0.40369943       0.06901527      -0.49999998 </v>
   <v>       0.26296362      -0.26431798      -0.49999998 </v>
   <v>      -0.36563174       0.27107642      -0.49999998 </v>
   <v>       0.39424760      -0.30237203      -0.49999998 </v>
   <v>       0.06091242      -0.30237115      -0.49999998 </v>
   <v>      -0.36563194      -0.06225683      -0.49999998 </v>
   <v>       0.33209808       0.16657460      -0.49999998 </v>
   <v>       0.16543339      -0.00010845      -0.49999998 </v>
   <v>      -0.30350011       0.39536527      -0.49999998 </v>
   <v>      -0.06338107      -0.36452085      -0.49999998 </v>
   <v>       0.36316456      -0.27130135      -0.49999998 </v>
   <v>      -0.39671193      -0.03118615      -0.49999998 </v>
   <v>      -0.40368543       0.19497755      -0.49999998 </v>
   <v>       0.13701804      -0.26431490      -0.49999998 </v>
   <v>       0.40124843       0.26411283      -0.49999998 </v>
   <v>       0.06791641      -0.06922350      -0.49999998 </v>
   <v>       0.47035185       0.40235173      -0.49999998 </v>
   <v>      -0.07035644      -0.13835482      -0.49999998 </v>
   <v>       0.26296372       0.06901659      -0.49999998 </v>
   <v>      -0.13948242      -0.40257314      -0.49999998 </v>
   <v>      -0.26545887       0.47146282      -0.49999998 </v>
   <v>       0.49874265       0.49988380      -0.49999998 </v>
   <v>      -0.16792598      -0.16678502      -0.49999998 </v>
   <v>       0.49877008      -0.33344138      -0.49999998 </v>
   <v>      -0.33456593      -0.16676129      -0.49999998 </v>
   <v>      -0.39671151       0.30214753      -0.49999998 </v>
   <v>       0.02982841      -0.27130091      -0.49999998 </v>
   <v>      -0.36565339       0.36429064      -0.49999998 </v>
   <v>      -0.03231837      -0.30237466      -0.49999998 </v>
   <v>      -0.47281286      -0.40257270      -0.49999998 </v>
   <v>      -0.26545723      -0.19520336      -0.49999998 </v>
   <v>      -0.34418389       0.33448064      -0.24998661 </v>
   <v>       0.47034973      -0.26431666      -0.49999998 </v>
   <v>      -0.40368694      -0.13835526      -0.49999998 </v>
   <v>       0.40120884      -0.19520380      -0.49999998 </v>
   <v>      -0.47281406      -0.06924152      -0.49999998 </v>
   <v>       0.49876995       0.33322173      -0.49999998 </v>
   <v>      -0.00123587      -0.16676173      -0.49999998 </v>
   <v>      -0.32645820       0.41890400      -0.28589430 </v>
   <v>       0.49876992      -0.00010888      -0.49999998 </v>
   <v>       0.33209753      -0.16676085      -0.49999998 </v>
   <v>       0.30101632       0.03095859      -0.49999998 </v>
   <v>       0.40120838       0.13812813      -0.49999998 </v>
   <v>       0.19384618      -0.06924372      -0.49999998 </v>
   <v>      -0.43060591       0.26572999      -0.27759554 </v>
   <v>      -0.34195337       0.33360635      -0.14359262 </v>
   <v>       0.49874322       0.16654603      -0.49999998 </v>
   <v>       0.16540921      -0.16678590      -0.49999998 </v>
   <v>      -0.47281464       0.26408865      -0.49999998 </v>
   <v>       0.06787513      -0.19520380      -0.49999998 </v>
   <v>       0.47035015       0.06901703      -0.49999998 </v>
   <v>       0.26297675      -0.13835438      -0.49999998 </v>
   <v>      -0.40369987       0.40234645      -0.49999998 </v>
   <v>      -0.07036848      -0.26431929      -0.49999998 </v>
   <v>      -0.40368810      -0.47169039      -0.49999998 </v>
   <v>      -0.19631471      -0.26431446      -0.49999998 </v>
   <v>      -0.16789904      -0.33344094      -0.49999998 </v>
   <v>      -0.33456653       0.49990622      -0.49999998 </v>
   <v>       0.36316504       0.06203322      -0.49999998 </v>
   <v>       0.26995289      -0.03118527      -0.49999998 </v>
   <v>      -0.39671243      -0.36451997      -0.49999998 </v>
   <v>      -0.30350125      -0.27130267      -0.49999998 </v>
   <v>       0.49874330      -0.16678590      -0.49999998 </v>
   <v>      -0.26541503      -0.40255556      -0.49999998 </v>
   <v>      -0.40369991      -0.26431929      -0.49999998 </v>
   <v>      -0.36563091      -0.39558757      -0.49999998 </v>
   <v>      -0.27241792      -0.30236895      -0.49999998 </v>
   <v>      -0.36565027      -0.30237334      -0.49999998 </v>
   <v>       0.40124887      -0.06922218      -0.49999998 </v>
   <v>       0.39424862       0.03096210      -0.49999998 </v>
   <v>       0.30103555      -0.06225595      -0.49999998 </v>
   <v>      -0.30347854      -0.36451250      -0.49999998 </v>
   <v>       0.36318603      -0.03117780      -0.49999998 </v>
  </varray>
 </structure>
 <varray name="primitive_index" >
  <v type="int" >        1 </v>
  <v type="int" >       22 </v>
  <v type="int" >       17 </v>
  <v type="int" >      109 </v>
  <v type="int" >       15 </v>
  <v type="int" >       20 </v>
  <v type="int" >       76 </v>
  <v type="int" >       71 </v>
  <v type="int" >       36 </v>
  <v type="int" >      138 </v>
  <v type="int" >      115 </v>
  <v type="int" >       74 </v>
  <v type="int" >       69 </v>
  <v type="int" >       90 </v>
  <v type="int" >      119 </v>
  <v type="int" >      116 </v>
  <v type="int" >       57 </v>
  <v type="int" >       56 </v>
  <v type="int" >       78 </v>
  <v type="int" >       72 </v>
  <v type="int" >      117 </v>
  <v type="int" >      124 </v>
  <v type="int" >       77 </v>
  <v type="int" >       70 </v>
  <v type="int" >      137 </v>
  <v type="int" >        3 </v>
  <v type="int" >        2 </v>
  <v type="int" >       24 </v>
  <v type="int" >       18 </v>
  <v type="int" >       75 </v>
  <v type="int" >       68 </v>
  <v type="int" >      118 </v>
  <v type="int" >      135 </v>
  <v type="int" >       67 </v>
  <v type="int" >       73 </v>
  <v type="int" >        5 </v>
  <v type="int" >        4 </v>
  <v type="int" >       23 </v>
  <v type="int" >       16 </v>
  <v type="int" >       88 </v>
  <v type="int" >       89 </v>
  <v type="int" >       26 </v>
  <v type="int" >       21 </v>
  <v type="int" >       51 </v>
  <v type="int" >       14 </v>
  <v type="int" >       59 </v>
  <v type="int" >       58 </v>
  <v type="int" >      139 </v>
  <v type="int" >      120 </v>
  <v type="int" >       80 </v>
  <v type="int" >      105 </v>
  <v type="int" >       13 </v>
  <v type="int" >        7 </v>
  <v type="int" >       37 </v>
  <v type="int" >       19 </v>
  <v type="int" >       49 </v>
  <v type="int" >       25 </v>
  <v type="int" >       28 </v>
  <v type="int" >       34 </v>
  <v type="int" >       35 </v>
  <v type="int" >       53 </v>
  <v type="int" >      103 </v>
  <v type="int" >       79 </v>
  <v type="int" >      125 </v>
  <v type="int" >       42 </v>
  <v type="int" >       12 </v>
  <v type="int" >      110 </v>
  <v type="int" >       66 </v>
  <v type="int" >       96 </v>
  <v type="int" >       11 </v>
  <v type="int" >       46 </v>
  <v type="int" >       40 </v>
  <v type="int" >       47 </v>
  <v type="int" >      136 </v>
  <v type="int" >      129 </v>
  <v type="int" >       32 </v>
  <v type="int" >       33 </v>
  <v type="int" >       44 </v>
  <v type="int" >       45 </v>
  <v type="int" >       65 </v>
  <v type="int" >       94 </v>
  <v type="int" >       61 </v>
  <v type="int" >       91 </v>
  <v type="int" >       82 </v>
  <v type="int" >      107 </v>
  <v type="int" >       60 </v>
  <v type="int" >       87 </v>
  <v type="int" >       86 </v>
  <v type="int" >      122 </v>
  <v type="int" >      134 </v>
  <v type="int" >      123 </v>
  <v type="int" >      130 </v>
  <v type="int" >        9 </v>
  <v type="int" >       38 </v>
  <v type="int" >       30 </v>
  <v type="int" >       54 </v>
  <v type="int" >       81 </v>
  <v type="int" >      104 </v>
  <v type="int" >       55 </v>
  <v type="int" >      100 </v>
  <v type="int" >      101 </v>
  <v type="int" >       98 </v>
  <v type="int" >       99 </v>
  <v type="int" >      114 </v>
  <v type="int" >      133 </v>
  <v type="int" >      111 </v>
  <v type="int" >      132 </v>
  <v type="int" >      127 </v>
  <v type="int" >        6 </v>
  <v type="int" >       62 </v>
  <v type="int" >       93 </v>
  <v type="int" >      112 </v>
  <v type="int" >      113 </v>
  <v type="int" >      140 </v>
  <v type="int" >      128 </v>
  <v type="int" >       63 </v>
  <v type="int" >       92 </v>
  <v type="int" >       64 </v>
  <v type="int" >       95 </v>
  <v type="int" >       84 </v>
  <v type="int" >      108 </v>
  <v type="int" >       83 </v>
  <v type="int" >      106 </v>
  <v type="int" >      126 </v>
  <v type="int" >      121 </v>
  <v type="int" >        8 </v>
  <v type="int" >       39 </v>
  <v type="int" >       27 </v>
  <v type="int" >       50 </v>
  <v type="int" >      131 </v>
  <v type="int" >       85 </v>
  <v type="int" >      102 </v>
  <v type="int" >       29 </v>
  <v type="int" >       52 </v>
  <v type="int" >       48 </v>
  <v type="int" >       97 </v>
  <v type="int" >       10 </v>
  <v type="int" >       41 </v>
  <v type="int" >       31 </v>
  <v type="int" >       43 </v>
 </varray>
 <kpoints>
  <generation param="Gamma">
   <v type="int" name="divisions">       3        3        1 </v>
   <v name="usershift">      0.00000000       0.00000000       0.00000000 </v>
   <v name="genvec1">      0.33333333       0.00000000       0.00000000 </v>
   <v name="genvec2">      0.00000000       0.33333333       0.00000000 </v>
   <v name="genvec3">      0.00000000       0.00000000       1.00000000 </v>
   <v name="shift">      0.00000000       0.00000000       0.00000000 </v>
  </generation>
  <varray name="kpointlist" >
   <v>       0.00000000       0.00000000       0.00000000 </v>
   <v>       0.33333333       0.00000000       0.00000000 </v>
   <v>       0.00000000       0.33333333       0.00000000 </v>
   <v>       0.33333333       0.33333333       0.00000000 </v>
   <v>      -0.33333333       0.33333333       0.00000000 </v>
  </varray>
  <varray name="weights" >
   <v>       0.11111111 </v>
   <v>       0.22222222 </v>
   <v>       0.22222222 </v>
   <v>       0.22222222 </v>
   <v>       0.22222222 </v>
  </varray>
 </kpoints>
 <parameters>
  <separator name="general" >
   <i type="string" name="SYSTEM">membrane</i>
   <i type="logical" name="LCOMPAT"> F  </i>
  </separator>
  <separator name="electronic" >
   <i type="string" name="PREC">normal</i>
   <i name="ENMAX">    500.00000000</i>
   <i name="ENAUG">    644.87300000</i>
   <i name="EDIFF">      0.00000100</i>
   <i type="int" name="IALGO">    68</i>
   <i type="int" name="IWAVPR">    11</i>
   <i type="int" name="NBANDS">   590</i>
   <i name="NELECT">    868.00000000</i>
   <i type="int" name="TURBO">     0</i>
   <i type="int" name="IRESTART">     0</i>
   <i type="int" name="NREBOOT">     0</i>
   <i type="int" name="NMIN">     0</i>
   <i name="EREF">      0.00000000</i>
   <separator name="electronic smearing" >
    <i type="int" name="ISMEAR">     0</i>
    <i name="SIGMA">      0.05000000</i>
    <i name="KSPACING">      0.50000000</i>
    <i type="logical" name="KGAMMA"> T  </i>
   </separator>
   <separator name="electronic projectors" >
    <i type="logical" name="LREAL"> F  </i>
    <v name="ROPT">      0.00000000      0.00000000      0.00000000      0.00000000      0.00000000</v>
    <i type="int" name="LMAXPAW">  -100</i>
    <i type="int" name="LMAXMIX">     2</i>
    <i type="logical" name="NLSPLINE"> F  </i>
   </separator>
   <separator name="electronic startup" >
    <i type="int" name="ISTART">     0</i>
    <i type="int" name="ICHARG">     2</i>
    <i type="int" name="INIWAV">     1</i>
   </separator>
   <separator name="electronic spin" >
    <i type="int" name="ISPIN">     2</i>
    <i type="logical" name="LNONCOLLINEAR"> F  </i>
    <v name="MAGMOM">      1.00000000      1.00000000      1.00000000      1.00000000      1.00000000      1.00000000      1.00000000      1.00000000      1.00000000      1.00000000      1.00000000      1.00000000      1.00000000      1.00000000      1.00000000      1.00000000      1.00000000      1.00000000      1.00000000      1.00000000
      1.00000000      1.00000000      1.00000000      1.00000000      1.00000000      1.00000000      1.00000000      1.00000000      1.00000000      1.00000000      1.00000000      1.00000000      1.00000000      1.00000000      1.00000000      1.00000000      1.00000000      1.00000000      1.00000000      1.00000000
      1.00000000      1.00000000      1.00000000      1.00000000      1.00000000      1.00000000      1.00000000      1.00000000      1.00000000      1.00000000      1.00000000      1.00000000      1.00000000      1.00000000      1.00000000      1.00000000      1.00000000      1.00000000      1.00000000      1.00000000
      1.00000000      1.00000000      1.00000000      1.00000000      1.00000000      1.00000000      1.00000000      1.00000000      1.00000000      1.00000000      1.00000000      1.00000000      1.00000000      1.00000000      1.00000000      1.00000000      1.00000000      1.00000000      1.00000000      1.00000000
      1.00000000      1.00000000      1.00000000      1.00000000      1.00000000      1.00000000      1.00000000      1.00000000      1.00000000      1.00000000      1.00000000      1.00000000      1.00000000      1.00000000      1.00000000      1.00000000      1.00000000      1.00000000      1.00000000      1.00000000
      1.00000000      1.00000000      1.00000000      1.00000000      1.00000000      1.00000000      1.00000000      1.00000000      1.00000000      1.00000000      1.00000000      1.00000000      1.00000000      1.00000000      1.00000000      1.00000000      1.00000000      1.00000000      1.00000000      1.00000000
      1.00000000      1.00000000      1.00000000      1.00000000      1.00000000      1.00000000      1.00000000      1.00000000      1.00000000      1.00000000      1.00000000      1.00000000      1.00000000      1.00000000      1.00000000      1.00000000      1.00000000      1.00000000      1.00000000      1.00000000
</v>
    <i name="NUPDOWN">     -1.00000000</i>
    <i type="logical" name="LSORBIT"> F  </i>
    <v name="SAXIS">      0.00000000      0.00000000      1.00000000</v>
    <i type="logical" name="LSPIRAL"> F  </i>
    <v name="QSPIRAL">      0.00000000      0.00000000      0.00000000</v>
    <i type="logical" name="LZEROZ"> F  </i>
   </separator>
   <separator name="electronic exchange-correlation" >
    <i type="logical" name="LASPH"> F  </i>
    <i type="logical" name="LMETAGGA"> F  </i>
   </separator>
   <separator name="electronic convergence" >
    <i type="int" name="NELM">    60</i>
    <i type="int" name="NELMDL">    -5</i>
    <i type="int" name="NELMIN">     2</i>
    <i name="ENINI">    500.00000000</i>
    <separator name="electronic convergence detail" >
     <i type="logical" name="LDIAG"> T  </i>
     <i type="logical" name="LSUBROT"> F  </i>
     <i name="WEIMIN">      0.00100000</i>
     <i name="EBREAK">      0.00000000</i>
     <i name="DEPER">      0.30000000</i>
     <i type="int" name="NRMM">     4</i>
     <i name="TIME">      0.40000000</i>
    </separator>
   </separator>
   <separator name="electronic mixer" >
    <i name="AMIX">      0.40000000</i>
    <i name="BMIX">      1.00000000</i>
    <i name="AMIN">      0.10000000</i>
    <i name="AMIX_MAG">      1.60000000</i>
    <i name="BMIX_MAG">      1.00000000</i>
    <separator name="electronic mixer details" >
     <i type="int" name="IMIX">     4</i>
     <i type="logical" name="MIXFIRST"> F  </i>
     <i type="int" name="MAXMIX">   -45</i>
     <i name="WC">    100.00000000</i>
     <i type="int" name="INIMIX">     1</i>
     <i type="int" name="MIXPRE">     1</i>
     <i type="int" name="MREMOVE">     5</i>
    </separator>
   </separator>
   <separator name="electronic dipolcorrection" >
    <i type="logical" name="LDIPOL"> F  </i>
    <i type="logical" name="LMONO"> F  </i>
    <i type="int" name="IDIPOL">     0</i>
    <i name="EPSILON">      1.00000000</i>
    <v name="DIPOL">   -100.00000000   -100.00000000   -100.00000000</v>
    <i name="EFIELD">      0.00000000</i>
   </separator>
  </separator>
  <separator name="grids" >
   <i type="int" name="NGX">   144</i>
   <i type="int" name="NGY">   144</i>
   <i type="int" name="NGZ">   112</i>
   <i type="int" name="NGXF">   288</i>
   <i type="int" name="NGYF">   288</i>
   <i type="int" name="NGZF">   224</i>
   <i type="logical" name="ADDGRID"> F  </i>
  </separator>
  <separator name="ionic" >
   <i type="int" name="NSW">  1000</i>
   <i type="int" name="IBRION">     2</i>
   <i type="int" name="MDALGO">     0</i>
   <i type="int" name="ISIF">     2</i>
   <i name="PSTRESS">      0.00000000</i>
   <i name="EDIFFG">     -0.01000000</i>
   <i type="int" name="NFREE">     1</i>
   <i name="POTIM">      0.50000000</i>
   <i name="SMASS">     -3.00000000</i>
   <i name="SCALEE">      1.00000000</i>
  </separator>
  <separator name="ionic md" >
   <i name="TEBEG">      0.00010000</i>
   <i name="TEEND">      0.00010000</i>
   <i type="int" name="NBLOCK">     1</i>
   <i type="int" name="KBLOCK">  1000</i>
   <i type="int" name="NPACO">   256</i>
   <i name="APACO">     16.00000000</i>
  </separator>
  <separator name="symmetry" >
   <i type="int" name="ISYM">     2</i>
   <i name="SYMPREC">      0.00001000</i>
  </separator>
  <separator name="dos" >
   <i type="int" name="LORBIT">     0</i>
   <v name="RWIGS">     -1.00000000     -1.00000000     -1.00000000     -1.00000000     -1.00000000</v>
   <i type="int" name="NEDOS">   301</i>
   <i name="EMIN">     10.00000000</i>
   <i name="EMAX">    -10.00000000</i>
   <i name="EFERMI">      0.00000000</i>
  </separator>
  <separator name="writing" >
   <i type="int" name="NWRITE">     2</i>
   <i type="logical" name="LWAVE"> F  </i>
   <i type="logical" name="LDOWNSAMPLE"> F  </i>
   <i type="logical" name="LCHARG"> F  </i>
   <i type="logical" name="LPARD"> F  </i>
   <i type="logical" name="LVTOT"> F  </i>
   <i type="logical" name="LVHAR"> F  </i>
   <i type="logical" name="LELF"> F  </i>
   <i type="logical" name="LOPTICS"> F  </i>
   <v name="STM">      0.00000000      0.00000000      0.00000000      0.00000000      0.00000000      0.00000000      0.00000000</v>
  </separator>
  <separator name="performance" >
   <i type="int" name="NPAR">     1</i>
   <i type="int" name="NSIM">     4</i>
   <i type="int" name="NBLK">    -1</i>
   <i type="logical" name="LPLANE"> T  </i>
   <i type="logical" name="LSCALAPACK"> T  </i>
   <i type="logical" name="LSCAAWARE"> F  </i>
   <i type="logical" name="LSCALU"> F  </i>
   <i type="logical" name="LASYNC"> F  </i>
   <i type="logical" name="LORBITALREAL"> F  </i>
  </separator>
  <separator name="miscellaneous" >
   <i type="int" name="IDIOT">     3</i>
   <i type="int" name="ISPECIAL">     0</i>
   <i type="logical" name="LMUSIC"> F  </i>
   <v name="POMASS">     12.01100000     26.98100000     32.06600000     35.45300000     63.54600000</v>
   <v name="DARWINR">      0.00000000      0.00000000      0.00000000      0.00000000      0.00000000</v>
   <v name="DARWINV">      1.00000000      1.00000000      1.00000000      1.00000000      1.00000000</v>
   <i type="logical" name="LCORR"> T  </i>
  </separator>
  <i type="logical" name="GGA_COMPAT"> T  </i>
  <i type="logical" name="LBERRY"> F  </i>
  <i type="int" name="ICORELEVEL">     0</i>
  <i type="logical" name="LDAU"> F  </i>
  <i type="int" name="I_CONSTRAINED_M">     0</i>
  <separator name="electronic exchange-correlation" >
   <i type="string" name="GGA">--</i>
   <i type="int" name="VOSKOWN">     0</i>
   <i type="logical" name="LHFCALC"> F  </i>
   <i type="string" name="PRECFOCK"></i>
   <i type="logical" name="LSYMGRAD"> F  </i>
   <i type="logical" name="LHFONE"> F  </i>
   <i type="logical" name="LRHFCALC"> F  </i>
   <i type="logical" name="LTHOMAS"> F  </i>
   <i type="logical" name="LMODELHF"> F  </i>
   <i name="ENCUT4O">     -1.00000000</i>
   <i type="int" name="EXXOEP">     0</i>
   <i type="int" name="FOURORBIT">     0</i>
   <i name="AEXX">      0.00000000</i>
   <i name="HFALPHA">      0.00000000</i>
   <i name="MCALPHA">      0.00000000</i>
   <i name="ALDAX">      1.00000000</i>
   <i name="AGGAX">      1.00000000</i>
   <i name="ALDAC">      1.00000000</i>
   <i name="AGGAC">      1.00000000</i>
   <i type="int" name="NKREDX">     1</i>
   <i type="int" name="NKREDY">     1</i>
   <i type="int" name="NKREDZ">     1</i>
   <i type="logical" name="SHIFTRED"> F  </i>
   <i type="logical" name="ODDONLY"> F  </i>
   <i type="logical" name="EVENONLY"> F  </i>
   <i type="int" name="LMAXFOCK">     0</i>
   <i type="int" name="NMAXFOCKAE">     0</i>
   <i type="logical" name="LFOCKAEDFT"> F  </i>
   <i name="HFSCREEN">      0.00000000</i>
   <i name="HFSCREENC">      0.00000000</i>
   <i type="int" name="NBANDSGWLOW">     0</i>
  </separator>
  <separator name="vdW DFT" >
   <i type="logical" name="LUSE_VDW"> F  </i>
   <i name="Zab_VDW">     -0.84910000</i>
   <i name="PARAM1">      0.12340000</i>
   <i name="PARAM2">      1.00000000</i>
   <i name="PARAM3">      0.00000000</i>
  </separator>
  <separator name="model GW" >
   <i type="int" name="MODEL_GW">     0</i>
   <i name="MODEL_EPS0">     51.73590577</i>
   <i name="MODEL_ALPHA">      1.00000000</i>
  </separator>
  <separator name="linear response parameters" >
   <i type="logical" name="LEPSILON"> F  </i>
   <i type="logical" name="LRPA"> F  </i>
   <i type="logical" name="LNABLA"> F  </i>
   <i type="logical" name="LVEL"> F  </i>
   <i type="int" name="KINTER">     0</i>
   <i name="CSHIFT">      0.10000000</i>
   <i name="OMEGAMAX">     -1.00000000</i>
   <i name="DEG_THRESHOLD">      0.00200000</i>
   <i name="RTIME">     -0.10000000</i>
   <i name="WPLASMAI">      0.00000000</i>
   <v name="DFIELD">      0.00000000      0.00000000      0.00000000</v>
   <v name="WPLASMA">      0.00000000      0.00000000      0.00000000      0.00000000      0.00000000      0.00000000      0.00000000      0.00000000      0.00000000</v>
  </separator>
  <separator name="orbital magnetization" >
   <i type="logical" name="NUCIND"> F  </i>
   <v name="MAGPOS">      0.00000000      0.00000000      0.00000000</v>
   <i type="logical" name="LNICSALL"> T  </i>
   <i type="logical" name="ORBITALMAG"> F  </i>
   <i type="logical" name="LMAGBLOCH"> F  </i>
   <i type="logical" name="LCHIMAG"> F  </i>
   <i type="logical" name="LGAUGE"> T  </i>
   <i type="int" name="MAGATOM">     0</i>
   <v name="MAGDIPOL">      0.00000000      0.00000000      0.00000000</v>
   <v name="AVECCONST">      0.00000000      0.00000000      0.00000000</v>
  </separator>
  <separator name="response functions" >
   <i type="logical" name="LADDER"> F  </i>
   <i type="logical" name="LRPAFORCE"> F  </i>
   <i type="logical" name="LFXC"> F  </i>
   <i type="logical" name="LHARTREE"> T  </i>
   <i type="int" name="IBSE">     0</i>
   <v type="int" name="KPOINT">    -1     0     0     0</v>
   <i type="logical" name="LTCTE"> F  </i>
   <i type="logical" name="LTETE"> F  </i>
   <i type="logical" name="LTRIPLET"> F  </i>
   <i type="logical" name="LFXCEPS"> F  </i>
   <i type="logical" name="LFXHEG"> F  </i>
   <i type="int" name="NATURALO">     2</i>
   <i type="logical" name="L2ORDER"> F  </i>
   <i type="logical" name="LMP2LT"> F  </i>
   <i type="logical" name="LUSEW"> F  </i>
   <i name="ENCUTGW">     -2.00000000</i>
   <i name="ENCUTGWSOFT">     -2.00000000</i>
   <i name="ENCUTLF">     -1.00000000</i>
   <i type="int" name="LMAXMP2">    -1</i>
   <i name="SCISSOR">      0.00000000</i>
   <i type="int" name="NOMEGA">     0</i>
   <i type="int" name="NOMEGAR">     0</i>
   <i type="int" name="NBANDSGW">    -1</i>
   <i type="int" name="NBANDSO">    -1</i>
   <i type="int" name="NBANDSV">    -1</i>
   <i type="int" name="NELM">     1</i>
   <i type="int" name="NELMHF">     1</i>
   <i type="int" name="DIM">     3</i>
   <i type="int" name="ANTIRES">     0</i>
   <i name="OMEGAMAX">    -30.00000000</i>
   <i name="OMEGAMIN">    -30.00000000</i>
   <i name="OMEGATL">   -200.00000000</i>
   <i type="int" name="OMEGAGRID">   140</i>
   <i name="CSHIFT">     -0.10000000</i>
   <i type="logical" name="SELFENERGY"> F  </i>
   <i type="logical" name="LSPECTRAL"> F  </i>
   <i type="logical" name="LSPECTRALGW"> F  </i>
   <i type="logical" name="LSINGLES"> F  </i>
   <i type="logical" name="LFERMIGW"> F  </i>
   <i type="logical" name="ODDONLYGW"> F  </i>
   <i type="logical" name="EVENONLYGW"> F  </i>
   <i type="int" name="NKREDLFX">     1</i>
   <i type="int" name="NKREDLFY">     1</i>
   <i type="int" name="NKREDLFZ">     1</i>
   <i type="int" name="MAXMEM">  2800</i>
   <i type="int" name="TELESCOPE">     0</i>
   <i type="int" name="TAUPAR">     1</i>
   <i type="int" name="OMEGAPAR">    -1</i>
   <i name="LAMBDA">      1.00000000</i>
  </separator>
  <separator name="External order field" >
   <i name="OFIELD_KAPPA">      0.00000000</i>
   <v name="OFIELD_K">      0.00000000      0.00000000      0.00000000</v>
   <i name="OFIELD_Q6_NEAR">      0.00000000</i>
   <i name="OFIELD_Q6_FAR">      0.00000000</i>
   <i name="OFIELD_A">      0.00000000</i>
  </separator>
 </parameters>
 <atominfo>
  <atoms>     140 </atoms>
  <types>       5 </types>
  <array name="atoms" >
   <dimension dim="1">ion</dimension>
   <field type="string">element</field>
   <field type="int">atomtype</field>
   <set>
    <rc><c>C </c><c>   1</c></rc>
    <rc><c>C </c><c>   1</c></rc>
    <rc><c>C </c><c>   1</c></rc>
    <rc><c>C </c><c>   1</c></rc>
    <rc><c>C </c><c>   1</c></rc>
    <rc><c>C </c><c>   1</c></rc>
    <rc><c>C </c><c>   1</c></rc>
    <rc><c>C </c><c>   1</c></rc>
    <rc><c>C </c><c>   1</c></rc>
    <rc><c>C </c><c>   1</c></rc>
    <rc><c>C </c><c>   1</c></rc>
    <rc><c>C </c><c>   1</c></rc>
    <rc><c>C </c><c>   1</c></rc>
    <rc><c>C </c><c>   1</c></rc>
    <rc><c>C </c><c>   1</c></rc>
    <rc><c>C </c><c>   1</c></rc>
    <rc><c>C </c><c>   1</c></rc>
    <rc><c>C </c><c>   1</c></rc>
    <rc><c>C </c><c>   1</c></rc>
    <rc><c>C </c><c>   1</c></rc>
    <rc><c>C </c><c>   1</c></rc>
    <rc><c>C </c><c>   1</c></rc>
    <rc><c>C </c><c>   1</c></rc>
    <rc><c>C </c><c>   1</c></rc>
    <rc><c>C </c><c>   1</c></rc>
    <rc><c>C </c><c>   1</c></rc>
    <rc><c>C </c><c>   1</c></rc>
    <rc><c>C </c><c>   1</c></rc>
    <rc><c>C </c><c>   1</c></rc>
    <rc><c>C </c><c>   1</c></rc>
    <rc><c>C </c><c>   1</c></rc>
    <rc><c>C </c><c>   1</c></rc>
    <rc><c>C </c><c>   1</c></rc>
    <rc><c>C </c><c>   1</c></rc>
    <rc><c>C </c><c>   1</c></rc>
    <rc><c>C </c><c>   1</c></rc>
    <rc><c>C </c><c>   1</c></rc>
    <rc><c>C </c><c>   1</c></rc>
    <rc><c>C </c><c>   1</c></rc>
    <rc><c>C </c><c>   1</c></rc>
    <rc><c>C </c><c>   1</c></rc>
    <rc><c>C </c><c>   1</c></rc>
    <rc><c>C </c><c>   1</c></rc>
    <rc><c>C </c><c>   1</c></rc>
    <rc><c>C </c><c>   1</c></rc>
    <rc><c>C </c><c>   1</c></rc>
    <rc><c>C </c><c>   1</c></rc>
    <rc><c>C </c><c>   1</c></rc>
    <rc><c>C </c><c>   1</c></rc>
    <rc><c>C </c><c>   1</c></rc>
    <rc><c>C </c><c>   1</c></rc>
    <rc><c>C </c><c>   1</c></rc>
    <rc><c>C </c><c>   1</c></rc>
    <rc><c>C </c><c>   1</c></rc>
    <rc><c>Al</c><c>   2</c></rc>
    <rc><c>S </c><c>   3</c></rc>
    <rc><c>S </c><c>   3</c></rc>
    <rc><c>S </c><c>   3</c></rc>
    <rc><c>S </c><c>   3</c></rc>
    <rc><c>S </c><c>   3</c></rc>
    <rc><c>S </c><c>   3</c></rc>
    <rc><c>S </c><c>   3</c></rc>
    <rc><c>S </c><c>   3</c></rc>
    <rc><c>S </c><c>   3</c></rc>
    <rc><c>S </c><c>   3</c></rc>
    <rc><c>S </c><c>   3</c></rc>
    <rc><c>S </c><c>   3</c></rc>
    <rc><c>S </c><c>   3</c></rc>
    <rc><c>S </c><c>   3</c></rc>
    <rc><c>S </c><c>   3</c></rc>
    <rc><c>S </c><c>   3</c></rc>
    <rc><c>S </c><c>   3</c></rc>
    <rc><c>S </c><c>   3</c></rc>
    <rc><c>S </c><c>   3</c></rc>
    <rc><c>S </c><c>   3</c></rc>
    <rc><c>S </c><c>   3</c></rc>
    <rc><c>S </c><c>   3</c></rc>
    <rc><c>S </c><c>   3</c></rc>
    <rc><c>S </c><c>   3</c></rc>
    <rc><c>S </c><c>   3</c></rc>
    <rc><c>S </c><c>   3</c></rc>
    <rc><c>S </c><c>   3</c></rc>
    <rc><c>S </c><c>   3</c></rc>
    <rc><c>S </c><c>   3</c></rc>
    <rc><c>S </c><c>   3</c></rc>
    <rc><c>S </c><c>   3</c></rc>
    <rc><c>S </c><c>   3</c></rc>
    <rc><c>S </c><c>   3</c></rc>
    <rc><c>S </c><c>   3</c></rc>
    <rc><c>S </c><c>   3</c></rc>
    <rc><c>S </c><c>   3</c></rc>
    <rc><c>S </c><c>   3</c></rc>
    <rc><c>S </c><c>   3</c></rc>
    <rc><c>S </c><c>   3</c></rc>
    <rc><c>S </c><c>   3</c></rc>
    <rc><c>S </c><c>   3</c></rc>
    <rc><c>S </c><c>   3</c></rc>
    <rc><c>S </c><c>   3</c></rc>
    <rc><c>S </c><c>   3</c></rc>
    <rc><c>S </c><c>   3</c></rc>
    <rc><c>S </c><c>   3</c></rc>
    <rc><c>S </c><c>   3</c></rc>
    <rc><c>S </c><c>   3</c></rc>
    <rc><c>S </c><c>   3</c></rc>
    <rc><c>S </c><c>   3</c></rc>
    <rc><c>S </c><c>   3</c></rc>
    <rc><c>S </c><c>   3</c></rc>
    <rc><c>S </c><c>   3</c></rc>
    <rc><c>S </c><c>   3</c></rc>
    <rc><c>Cl</c><c>   4</c></rc>
    <rc><c>Cl</c><c>   4</c></rc>
    <rc><c>Cl</c><c>   4</c></rc>
    <rc><c>Cl</c><c>   4</c></rc>
    <rc><c>Cu</c><c>   5</c></rc>
    <rc><c>Cu</c><c>   5</c></rc>
    <rc><c>Cu</c><c>   5</c></rc>
    <rc><c>Cu</c><c>   5</c></rc>
    <rc><c>Cu</c><c>   5</c></rc>
    <rc><c>Cu</c><c>   5</c></rc>
    <rc><c>Cu</c><c>   5</c></rc>
    <rc><c>Cu</c><c>   5</c></rc>
    <rc><c>Cu</c><c>   5</c></rc>
    <rc><c>Cu</c><c>   5</c></rc>
    <rc><c>Cu</c><c>   5</c></rc>
    <rc><c>Cu</c><c>   5</c></rc>
    <rc><c>Cu</c><c>   5</c></rc>
    <rc><c>Cu</c><c>   5</c></rc>
    <rc><c>Cu</c><c>   5</c></rc>
    <rc><c>Cu</c><c>   5</c></rc>
    <rc><c>Cu</c><c>   5</c></rc>
    <rc><c>Cu</c><c>   5</c></rc>
    <rc><c>Cu</c><c>   5</c></rc>
    <rc><c>Cu</c><c>   5</c></rc>
    <rc><c>Cu</c><c>   5</c></rc>
    <rc><c>Cu</c><c>   5</c></rc>
    <rc><c>Cu</c><c>   5</c></rc>
    <rc><c>Cu</c><c>   5</c></rc>
    <rc><c>Cu</c><c>   5</c></rc>
    <rc><c>Cu</c><c>   5</c></rc>
    <rc><c>Cu</c><c>   5</c></rc>
   </set>
  </array>
  <array name="atomtypes" >
   <dimension dim="1">type</dimension>
   <field type="int">atomspertype</field>
   <field type="string">element</field>
   <field>mass</field>
   <field>valence</field>
   <field type="string">pseudopotential</field>
   <set>
    <rc><c>  54</c><c>C </c><c>     12.01100000</c><c>      4.00000000</c><c>  PAW_PBE C 08Apr2002                   </c></rc>
    <rc><c>   1</c><c>Al</c><c>     26.98100000</c><c>      3.00000000</c><c>  PAW_PBE Al 04Jan2001                  </c></rc>
    <rc><c>  54</c><c>S </c><c>     32.06600000</c><c>      6.00000000</c><c>  PAW_PBE S 06Sep2000                   </c></rc>
    <rc><c>   4</c><c>Cl</c><c>     35.45300000</c><c>      7.00000000</c><c>  PAW_PBE Cl 06Sep2000                  </c></rc>
    <rc><c>  27</c><c>Cu</c><c>     63.54600000</c><c>     11.00000000</c><c>  PAW_PBE Cu 22Jun2005                  </c></rc>
   </set>
  </array>
 </atominfo>
 <structure name="initialpos" >
  <crystal>
   <varray name="basis" >
    <v>      26.26650047       0.00000000       0.00000000 </v>
    <v>     -13.13288029      22.74974710       0.00000000 </v>
    <v>       0.00000000       0.00000000      20.20179939 </v>
   </varray>
   <i name="volume">  12071.71134534 </i>
   <varray name="rec_basis" >
    <v>       0.03807131       0.02197765       0.00000000 </v>
    <v>       0.00000000       0.04395653       0.00000000 </v>
    <v>       0.00000000       0.00000000       0.04950054 </v>
   </varray>
  </crystal>
  <varray name="positions" >
   <v>       0.02985246       0.30215457       0.50000002 </v>
   <v>       0.02982867       0.06203322       0.50000002 </v>
   <v>       0.26995370       0.30214841       0.50000002 </v>
   <v>       0.06091427       0.03096386       0.50000002 </v>
   <v>       0.30103537       0.27107730       0.50000002 </v>
   <v>       0.30101632       0.03095859       0.50000002 </v>
   <v>       0.36318715       0.30215501       0.50000002 </v>
   <v>       0.36316504       0.06203322       0.50000002 </v>
   <v>       0.60328849       0.30214753       0.50000002 </v>
   <v>       0.39424862       0.03096210       0.50000002 </v>
   <v>       0.63436826       0.27107642       0.50000002 </v>
   <v>       0.63434839       0.03095683       0.50000002 </v>
   <v>       0.69652178       0.30215457       0.50000002 </v>
   <v>       0.69649902       0.06203146       0.50000002 </v>
   <v>       0.93661959       0.30214841       0.50000002 </v>
   <v>       0.72758311       0.03096518       0.50000002 </v>
   <v>       0.96769990       0.27107686       0.50000002 </v>
   <v>       0.96768058       0.03095683       0.50000002 </v>
   <v>       0.02985094       0.63548662       0.50000002 </v>
   <v>       0.02982955       0.39536703       0.50000002 </v>
   <v>       0.26995278       0.63548091       0.50000002 </v>
   <v>       0.06091254       0.36429856       0.50000002 </v>
   <v>       0.30103621       0.60441331       0.50000002 </v>
   <v>       0.30101454       0.36429240       0.50000002 </v>
   <v>       0.36318645       0.63548794       0.50000002 </v>
   <v>       0.36316592       0.39536703       0.50000002 </v>
   <v>       0.60328757       0.63548003       0.50000002 </v>
   <v>       0.39424689       0.36429680       0.50000002 </v>
   <v>       0.63436909       0.60441243       0.50000002 </v>
   <v>       0.63434661       0.36429064       0.50000002 </v>
   <v>       0.69652146       0.63548750       0.50000002 </v>
   <v>       0.69649989       0.39536527       0.50000002 </v>
   <v>       0.93661893       0.63547915       0.50000002 </v>
   <v>       0.72758100       0.36429987       0.50000002 </v>
   <v>       0.96769980       0.60441024       0.50000002 </v>
   <v>       0.96767917       0.36429064       0.50000002 </v>
   <v>       0.02985096       0.96882176       0.50000002 </v>
   <v>       0.02982841       0.72869909       0.50000002 </v>
   <v>       0.26995289       0.96881473       0.50000002 </v>
   <v>       0.06091242       0.69762885       0.50000002 </v>
   <v>       0.30103555       0.93774405       0.50000002 </v>
   <v>       0.30101744       0.69762797       0.50000002 </v>
   <v>       0.36318603       0.96882220       0.50000002 </v>
   <v>       0.36316456       0.72869865       0.50000002 </v>
   <v>       0.60328807       0.96881385       0.50000002 </v>
   <v>       0.39424760       0.69762797       0.50000002 </v>
   <v>       0.63436806       0.93774317       0.50000002 </v>
   <v>       0.63434973       0.69762666       0.50000002 </v>
   <v>       0.69652066       0.96882176       0.50000002 </v>
   <v>       0.69649875       0.72869733       0.50000002 </v>
   <v>       0.93661879       0.96881473       0.50000002 </v>
   <v>       0.72758208       0.69763105       0.50000002 </v>
   <v>       0.96769970       0.93774361       0.50000002 </v>
   <v>       0.96768163       0.69762534       0.50000002 </v>
   <v>       0.65581611       0.33448064       0.75001339 </v>
   <v>       0.06787467       0.13812813       0.50000002 </v>
   <v>       0.19384621       0.26408689       0.50000002 </v>
   <v>       0.13701868       0.06901923       0.50000002 </v>
   <v>       0.26297787       0.19497843       0.50000002 </v>
   <v>       0.26296372       0.06901659       0.50000002 </v>
   <v>       0.40124843       0.26411283       0.50000002 </v>
   <v>       0.40120838       0.13812813       0.50000002 </v>
   <v>       0.52718536       0.26408865       0.50000002 </v>
   <v>       0.47035015       0.06901703       0.50000002 </v>
   <v>       0.59631457       0.19497755       0.50000002 </v>
   <v>       0.59630057       0.06901527       0.50000002 </v>
   <v>       0.73458497       0.26411239       0.50000002 </v>
   <v>       0.73454231       0.13812857       0.50000002 </v>
   <v>       0.86051565       0.26408865       0.50000002 </v>
   <v>       0.80368550       0.06901879       0.50000002 </v>
   <v>       0.92964469       0.19497799       0.50000002 </v>
   <v>       0.92963162       0.06901527       0.50000002 </v>
   <v>       0.06791619       0.59744400       0.50000002 </v>
   <v>       0.06787327       0.47146194       0.50000002 </v>
   <v>       0.19384798       0.59742554       0.50000002 </v>
   <v>       0.13702038       0.40235392       0.50000002 </v>
   <v>       0.26297521       0.52831049       0.50000002 </v>
   <v>       0.26296366       0.40234777       0.50000002 </v>
   <v>       0.40124843       0.59744488       0.50000002 </v>
   <v>       0.40120720       0.47146238       0.50000002 </v>
   <v>       0.52718714       0.59742730       0.50000002 </v>
   <v>       0.47035185       0.40235173       0.50000002 </v>
   <v>       0.59631190       0.52830961       0.50000002 </v>
   <v>       0.59630013       0.40234645       0.50000002 </v>
   <v>       0.73458497       0.59744444       0.50000002 </v>
   <v>       0.73454113       0.47146282       0.50000002 </v>
   <v>       0.86051758       0.59742686       0.50000002 </v>
   <v>       0.80368720       0.40235348       0.50000002 </v>
   <v>       0.92964333       0.52830961       0.50000002 </v>
   <v>       0.92963134       0.40234601       0.50000002 </v>
   <v>       0.06791641       0.93077650       0.50000002 </v>
   <v>       0.06787513       0.80479620       0.50000002 </v>
   <v>       0.19384618       0.93075628       0.50000002 </v>
   <v>       0.13701804       0.73568510       0.50000002 </v>
   <v>       0.26297675       0.86164562       0.50000002 </v>
   <v>       0.26296362       0.73568202       0.50000002 </v>
   <v>       0.40124887       0.93077782       0.50000002 </v>
   <v>       0.40120884       0.80479620       0.50000002 </v>
   <v>       0.52718594       0.93075848       0.50000002 </v>
   <v>       0.47034973       0.73568334       0.50000002 </v>
   <v>       0.59631306       0.86164474       0.50000002 </v>
   <v>       0.59630009       0.73568071       0.50000002 </v>
   <v>       0.73458541       0.93077738       0.50000002 </v>
   <v>       0.73454277       0.80479664       0.50000002 </v>
   <v>       0.86051622       0.93075848       0.50000002 </v>
   <v>       0.80368529       0.73568554       0.50000002 </v>
   <v>       0.92964356       0.86164518       0.50000002 </v>
   <v>       0.92963152       0.73568071       0.50000002 </v>
   <v>       0.06791597       0.26411151       0.50000002 </v>
   <v>       0.72222789       0.31985894       0.70665685 </v>
   <v>       0.67354180       0.41890400       0.71410570 </v>
   <v>       0.56939409       0.26572999       0.72240446 </v>
   <v>       0.65804663       0.33360635       0.85640738 </v>
   <v>       0.49876995       0.33322173       0.50000002 </v>
   <v>       0.99876467       0.16657372       0.50000002 </v>
   <v>       0.83207394       0.16654691       0.50000002 </v>
   <v>       0.83210083       0.33322217       0.50000002 </v>
   <v>       0.33209655       0.49990666       0.50000002 </v>
   <v>       0.16540818       0.49988380       0.50000002 </v>
   <v>       0.16543317       0.66655906       0.50000002 </v>
   <v>       0.66543347       0.49990622       0.50000002 </v>
   <v>       0.49874265       0.49988380       0.50000002 </v>
   <v>       0.49877008       0.66655862       0.50000002 </v>
   <v>       0.99876467       0.49990578       0.50000002 </v>
   <v>       0.83207331       0.49988380       0.50000002 </v>
   <v>       0.83210096       0.66655906       0.50000002 </v>
   <v>       0.33209753       0.83323915       0.50000002 </v>
   <v>       0.16540921       0.83321410       0.50000002 </v>
   <v>       0.16543339       0.99989155       0.50000002 </v>
   <v>       0.66543407       0.83323871       0.50000002 </v>
   <v>       0.49874330       0.83321410       0.50000002 </v>
   <v>       0.49876992       0.99989112       0.50000002 </v>
   <v>       0.99876413       0.83323827       0.50000002 </v>
   <v>       0.83207402       0.83321498       0.50000002 </v>
   <v>       0.83210080       0.99989155       0.50000002 </v>
   <v>       0.33209808       0.16657460       0.50000002 </v>
   <v>       0.16540875       0.16654603       0.50000002 </v>
   <v>       0.16543303       0.33322217       0.50000002 </v>
   <v>       0.66543439       0.16657372       0.50000002 </v>
   <v>       0.49874322       0.16654603       0.50000002 </v>
  </varray>
 </structure>
 <calculation>
  <scstep>
   <time name="dav">  809.44  809.95</time>
   <time name="total">  811.11  811.63</time>
   <energy>
    <i name="alphaZ">    315.09161757 </i>
    <i name="ewald"> 106158.79682208 </i>
    <i name="hartreedc">-160727.07461077 </i>
    <i name="XCdc">   2664.58711356 </i>
    <i name="pawpsdc">  52118.65182442 </i>
    <i name="pawaedc"> -54801.79846914 </i>
    <i name="eentropy">     -0.12007177 </i>
    <i name="bandstr">    -44.80225408 </i>
    <i name="atom">  62143.14740716 </i>
    <i name="e_fr_energy">   7826.47937903 </i>
    <i name="e_wo_entrp">   7826.59945080 </i>
    <i name="e_0_energy">   7826.53941491 </i>
   </energy>
  </scstep>
  <scstep>
   <time name="dav">  945.82  946.17</time>
   <time name="total">  945.83  946.19</time>
   <energy>
    <i name="e_fr_energy">   1007.21336450 </i>
    <i name="e_wo_entrp">   1007.24307377 </i>
    <i name="e_0_energy">   1007.22821913 </i>
   </energy>
  </scstep>
  <scstep>
   <time name="dav"> 1086.57 1086.95</time>
   <time name="total"> 1086.59 1086.97</time>
   <energy>
    <i name="e_fr_energy">   -739.87747564 </i>
    <i name="e_wo_entrp">   -739.77227964 </i>
    <i name="e_0_energy">   -739.82487764 </i>
   </energy>
  </scstep>
  <scstep>
   <time name="dav"> 1183.42 1183.83</time>
   <time name="total"> 1183.43 1183.85</time>
   <energy>
    <i name="e_fr_energy">   -903.82484703 </i>
    <i name="e_wo_entrp">   -903.69241829 </i>
    <i name="e_0_energy">   -903.75863266 </i>
   </energy>
  </scstep>
  <scstep>
   <time name="dav"> 1230.94 1231.38</time>
   <time name="total"> 1243.70 1244.16</time>
   <energy>
    <i name="e_fr_energy">   -910.15087679 </i>
    <i name="e_wo_entrp">   -909.94397417 </i>
    <i name="e_0_energy">   -910.04742548 </i>
   </energy>
  </scstep>
  <scstep>
   <time name="diag">   66.94   67.00</time>
   <time name="diis">  618.22  618.46</time>
   <time name="orth">   19.88   19.88</time>
   <time name="total">  719.50  719.80</time>
   <energy>
    <i name="e_fr_energy">   -864.13383382 </i>
    <i name="e_wo_entrp">   -864.06522889 </i>
    <i name="e_0_energy">   -864.09953136 </i>
   </energy>
  </scstep>
  <scstep>
   <time name="diag">   66.87   66.89</time>
   <time name="diis">  537.76  537.94</time>
   <time name="orth">   19.96   19.96</time>
   <time name="total">  639.00  639.21</time>
   <energy>
    <i name="e_fr_energy">   -589.93768829 </i>
    <i name="e_wo_entrp">   -589.92317013 </i>
    <i name="e_0_energy">   -589.93042921 </i>
   </energy>
  </scstep>
  <scstep>
   <time name="diag">   66.80   66.82</time>
   <time name="diis">  585.54  585.74</time>
   <time name="orth">   19.85   19.86</time>
   <time name="total">  686.65  686.88</time>
   <energy>
    <i name="e_fr_energy">   -651.23327933 </i>
    <i name="e_wo_entrp">   -651.16107739 </i>
    <i name="e_0_energy">   -651.19717836 </i>
   </energy>
  </scstep>
  <scstep>
   <time name="diag">   66.87   66.89</time>
   <time name="diis">  570.90  571.09</time>
   <time name="orth">   19.90   19.93</time>
   <time name="total">  672.17  672.42</time>
   <energy>
    <i name="e_fr_energy">   -605.83267914 </i>
    <i name="e_wo_entrp">   -605.75345471 </i>
    <i name="e_0_energy">   -605.79306692 </i>
   </energy>
  </scstep>
  <scstep>
   <time name="diag">   66.72   66.74</time>
   <time name="diis">  538.02  538.21</time>
   <time name="orth">   19.91   19.92</time>
   <time name="total">  639.14  639.37</time>
   <energy>
    <i name="e_fr_energy">   -639.88264391 </i>
    <i name="e_wo_entrp">   -639.80461837 </i>
    <i name="e_0_energy">   -639.84363114 </i>
   </energy>
  </scstep>
  <scstep>
   <time name="diag">   66.67   66.69</time>
   <time name="diis">  545.39  545.58</time>
   <time name="orth">   19.87   19.88</time>
   <time name="total">  646.41  646.63</time>
   <energy>
    <i name="e_fr_energy">   -690.78489287 </i>
    <i name="e_wo_entrp">   -690.73330676 </i>
    <i name="e_0_energy">   -690.75909982 </i>
   </energy>
  </scstep>
  <scstep>
   <time name="diag">   66.67   66.70</time>
   <time name="diis">  553.27  553.45</time>
   <time name="orth">   19.95   19.96</time>
   <time name="total">  654.35  654.57</time>
   <energy>
    <i name="e_fr_energy">   -733.16764721 </i>
    <i name="e_wo_entrp">   -733.11330780 </i>
    <i name="e_0_energy">   -733.14047750 </i>
   </energy>
  </scstep>
  <scstep>
   <time name="diag">   66.60   66.62</time>
   <time name="diis">  565.37  565.57</time>
   <time name="orth">   19.85   19.85</time>
   <time name="total">  666.30  666.54</time>
   <energy>
    <i name="e_fr_energy">   -780.37474192 </i>
    <i name="e_wo_entrp">   -780.30531079 </i>
    <i name="e_0_energy">   -780.34002636 </i>
   </energy>
  </scstep>
  <scstep>
   <time name="diag">   66.74   66.77</time>
   <time name="diis">  571.44  571.62</time>
   <time name="orth">   19.87   19.87</time>
   <time name="total">  672.53  672.75</time>
   <energy>
    <i name="e_fr_energy">   -792.48172757 </i>
    <i name="e_wo_entrp">   -792.41144038 </i>
    <i name="e_0_energy">   -792.44658398 </i>
   </energy>
  </scstep>
  <scstep>
   <time name="diag">   66.57   66.59</time>
   <time name="diis">  546.50  546.68</time>
   <time name="orth">   19.87   19.87</time>
   <time name="total">  647.43  647.65</time>
   <energy>
    <i name="e_fr_energy">   -799.88643526 </i>
    <i name="e_wo_entrp">   -799.80919659 </i>
    <i name="e_0_energy">   -799.84781593 </i>
   </energy>
  </scstep>
  <scstep>
   <time name="diag">   66.54   66.56</time>
   <time name="diis">  532.54  532.71</time>
   <time name="orth">   19.88   19.88</time>
   <time name="total">  633.56  633.77</time>
   <energy>
    <i name="e_fr_energy">   -811.41254405 </i>
    <i name="e_wo_entrp">   -811.29636141 </i>
    <i name="e_0_energy">   -811.35445273 </i>
   </energy>
  </scstep>
  <scstep>
   <time name="diag">   66.72   66.74</time>
   <time name="diis">  584.74  584.93</time>
   <time name="orth">   19.86   19.87</time>
   <time name="total">  685.81  686.04</time>
   <energy>
    <i name="e_fr_energy">   -811.29759742 </i>
    <i name="e_wo_entrp">   -811.21825201 </i>
    <i name="e_0_energy">   -811.25792471 </i>
   </energy>
  </scstep>
  <scstep>
   <time name="diag">   66.71   66.73</time>
   <time name="diis">  545.96  546.14</time>
   <time name="orth">   19.89   19.90</time>
   <time name="total">  647.12  647.33</time>
   <energy>
    <i name="e_fr_energy">   -816.75696663 </i>
    <i name="e_wo_entrp">   -816.65722162 </i>
    <i name="e_0_energy">   -816.70709413 </i>
   </energy>
  </scstep>
  <scstep>
   <time name="diag">   66.68   66.70</time>
   <time name="diis">  571.59  571.79</time>
   <time name="orth">   19.93   19.93</time>
   <time name="total">  672.76  672.99</time>
   <energy>
    <i name="e_fr_energy">   -820.62410495 </i>
    <i name="e_wo_entrp">   -820.54544583 </i>
    <i name="e_0_energy">   -820.58477539 </i>
   </energy>
  </scstep>
  <scstep>
   <time name="diag">   66.65   66.67</time>
   <time name="diis">  587.76  587.96</time>
   <time name="orth">   19.94   19.95</time>
   <time name="total">  688.91  689.14</time>
   <energy>
    <i name="e_fr_energy">   -822.79124168 </i>
    <i name="e_wo_entrp">   -822.70068624 </i>
    <i name="e_0_energy">   -822.74596396 </i>
   </energy>
  </scstep>
  <scstep>
   <time name="diag">   66.68   66.71</time>
   <time name="diis">  621.97  622.19</time>
   <time name="orth">   19.96   19.97</time>
   <time name="total">  723.17  723.42</time>
   <energy>
    <i name="e_fr_energy">   -823.00497128 </i>
    <i name="e_wo_entrp">   -822.91307579 </i>
    <i name="e_0_energy">   -822.95902353 </i>
   </energy>
  </scstep>
  <scstep>
   <time name="diag">   66.68   66.70</time>
   <time name="diis">  689.95  690.18</time>
   <time name="orth">   19.92   19.93</time>
   <time name="total">  791.10  791.37</time>
   <energy>
    <i name="e_fr_energy">   -822.95679127 </i>
    <i name="e_wo_entrp">   -822.86466943 </i>
    <i name="e_0_energy">   -822.91073035 </i>
   </energy>
  </scstep>
  <scstep>
   <time name="diag">   66.67   66.69</time>
   <time name="diis">  560.15  560.34</time>
   <time name="orth">   19.90   19.91</time>
   <time name="total">  661.32  661.53</time>
   <energy>
    <i name="e_fr_energy">   -823.19622690 </i>
    <i name="e_wo_entrp">   -823.10474988 </i>
    <i name="e_0_energy">   -823.15048839 </i>
   </energy>
  </scstep>
  <scstep>
   <time name="diag">   66.73   66.76</time>
   <time name="diis">  545.28  545.47</time>
   <time name="orth">   19.94   19.95</time>
   <time name="total">  646.57  646.79</time>
   <energy>
    <i name="e_fr_energy">   -824.01636175 </i>
    <i name="e_wo_entrp">   -823.92291046 </i>
    <i name="e_0_energy">   -823.96963611 </i>
   </energy>
  </scstep>
  <scstep>
   <time name="diag">   66.69   66.71</time>
   <time name="diis">  603.48  603.68</time>
   <time name="orth">   19.88   19.88</time>
   <time name="total">  704.63  704.86</time>
   <energy>
    <i name="e_fr_energy">   -824.49863697 </i>
    <i name="e_wo_entrp">   -824.40054507 </i>
    <i name="e_0_energy">   -824.44959102 </i>
   </energy>
  </scstep>
  <scstep>
   <time name="diag">   66.72   66.74</time>
   <time name="diis">  650.19  650.42</time>
   <time name="orth">   19.89   19.89</time>
   <time name="total">  751.43  751.69</time>
   <energy>
    <i name="e_fr_energy">   -824.76472567 </i>
    <i name="e_wo_entrp">   -824.65929062 </i>
    <i name="e_0_energy">   -824.71200814 </i>
   </energy>
  </scstep>
  <scstep>
   <time name="diag">   66.67   66.69</time>
   <time name="diis">  590.71  590.91</time>
   <time name="orth">   19.85   19.86</time>
   <time name="total">  691.80  692.03</time>
   <energy>
    <i name="e_fr_energy">   -825.30277659 </i>
    <i name="e_wo_entrp">   -825.19045664 </i>
    <i name="e_0_energy">   -825.24661661 </i>
   </energy>
  </scstep>
  <scstep>
   <time name="diag">   66.63   66.65</time>
   <time name="diis">  590.00  590.19</time>
   <time name="orth">   19.84   19.85</time>
   <time name="total">  691.04  691.27</time>
   <energy>
    <i name="e_fr_energy">   -825.38393669 </i>
    <i name="e_wo_entrp">   -825.27322749 </i>
    <i name="e_0_energy">   -825.32858209 </i>
   </energy>
  </scstep>
  <scstep>
   <time name="diag">   66.70   66.72</time>
   <time name="diis">  627.37  627.58</time>
   <time name="orth">   19.92   19.93</time>
   <time name="total">  728.54  728.78</time>
   <energy>
    <i name="e_fr_energy">   -825.44838396 </i>
    <i name="e_wo_entrp">   -825.33830395 </i>
    <i name="e_0_energy">   -825.39334395 </i>
   </energy>
  </scstep>
  <scstep>
   <time name="diag">   66.82   66.84</time>
   <time name="diis">  586.77  586.96</time>
   <time name="orth">   19.86   19.87</time>
   <time name="total">  688.09  688.31</time>
   <energy>
    <i name="e_fr_energy">   -825.58597430 </i>
    <i name="e_wo_entrp">   -825.47788296 </i>
    <i name="e_0_energy">   -825.53192863 </i>
   </energy>
  </scstep>
  <scstep>
   <time name="diag">   66.65   66.68</time>
   <time name="diis">  585.74  586.01</time>
   <time name="orth">   19.89   19.91</time>
   <time name="total">  686.96  687.32</time>
   <energy>
    <i name="e_fr_energy">   -825.80707055 </i>
    <i name="e_wo_entrp">   -825.70132051 </i>
    <i name="e_0_energy">   -825.75419553 </i>
   </energy>
  </scstep>
  <scstep>
   <time name="diag">   66.79   66.82</time>
   <time name="diis">  563.17  563.55</time>
   <time name="orth">   19.77   19.77</time>
   <time name="total">  664.37  664.79</time>
   <energy>
    <i name="e_fr_energy">   -826.41080784 </i>
    <i name="e_wo_entrp">   -826.30703578 </i>
    <i name="e_0_energy">   -826.35892181 </i>
   </energy>
  </scstep>
  <scstep>
   <time name="diag">   66.80   66.82</time>
   <time name="diis">  585.70  585.97</time>
   <time name="orth">   19.80   19.81</time>
   <time name="total">  686.99  687.31</time>
   <energy>
    <i name="e_fr_energy">   -826.88960667 </i>
    <i name="e_wo_entrp">   -826.78089578 </i>
    <i name="e_0_energy">   -826.83525122 </i>
   </energy>
  </scstep>
  <scstep>
   <time name="diag">   66.56   66.60</time>
   <time name="diis">  598.33  598.61</time>
   <time name="orth">   19.82   19.83</time>
   <time name="total">  699.42  699.75</time>
   <energy>
    <i name="e_fr_energy">   -827.10626289 </i>
    <i name="e_wo_entrp">   -826.99339364 </i>
    <i name="e_0_energy">   -827.04982827 </i>
   </energy>
  </scstep>
  <scstep>
   <time name="diag">   66.67   66.70</time>
   <time name="diis">  610.45  610.72</time>
   <time name="orth">   19.83   19.84</time>
   <time name="total">  711.58  711.88</time>
   <energy>
    <i name="e_fr_energy">   -827.24846943 </i>
    <i name="e_wo_entrp">   -827.13431546 </i>
    <i name="e_0_energy">   -827.19139244 </i>
   </energy>
  </scstep>
  <scstep>
   <time name="diag">   66.54   66.56</time>
   <time name="diis">  569.19  569.45</time>
   <time name="orth">   19.84   19.85</time>
   <time name="total">  670.25  670.55</time>
   <energy>
    <i name="e_fr_energy">   -827.41953421 </i>
    <i name="e_wo_entrp">   -827.31037388 </i>
    <i name="e_0_energy">   -827.36495404 </i>
   </energy>
  </scstep>
  <scstep>
   <time name="diag">   66.61   66.66</time>
   <time name="diis">  550.65  550.87</time>
   <time name="orth">   19.84   19.84</time>
   <time name="total">  651.80  652.10</time>
   <energy>
    <i name="e_fr_energy">   -827.74015495 </i>
    <i name="e_wo_entrp">   -827.63657420 </i>
    <i name="e_0_energy">   -827.68836458 </i>
   </energy>
  </scstep>
  <scstep>
   <time name="diag">   66.62   66.66</time>
   <time name="diis">  565.69  565.95</time>
   <time name="orth">   19.83   19.84</time>
   <time name="total">  666.84  667.15</time>
   <energy>
    <i name="e_fr_energy">   -828.03031146 </i>
    <i name="e_wo_entrp">   -827.92789325 </i>
    <i name="e_0_energy">   -827.97910236 </i>
   </energy>
  </scstep>
  <scstep>
   <time name="diag">   66.65   66.67</time>
   <time name="diis">  562.52  562.79</time>
   <time name="orth">   19.81   19.81</time>
   <time name="total">  663.75  664.05</time>
   <energy>
    <i name="e_fr_energy">   -828.13446868 </i>
    <i name="e_wo_entrp">   -828.03071105 </i>
    <i name="e_0_energy">   -828.08258987 </i>
   </energy>
  </scstep>
  <scstep>
   <time name="diag">   66.48   66.50</time>
   <time name="diis">  571.16  571.42</time>
   <time name="orth">   19.84   19.85</time>
   <time name="total">  672.21  672.51</time>
   <energy>
    <i name="e_fr_energy">   -828.17905984 </i>
    <i name="e_wo_entrp">   -828.07381953 </i>
    <i name="e_0_energy">   -828.12643968 </i>
   </energy>
  </scstep>
  <scstep>
   <time name="diag">   66.52   66.54</time>
   <time name="diis">  559.21  559.46</time>
   <time name="orth">   19.82   19.83</time>
   <time name="total">  660.29  660.58</time>
   <energy>
    <i name="e_fr_energy">   -828.21902067 </i>
    <i name="e_wo_entrp">   -828.11251808 </i>
    <i name="e_0_energy">   -828.16576937 </i>
   </energy>
  </scstep>
  <scstep>
   <time name="diag">   66.68   66.72</time>
   <time name="diis">  554.07  554.32</time>
   <time name="orth">   19.88   19.90</time>
   <time name="total">  655.33  655.64</time>
   <energy>
    <i name="e_fr_energy">   -828.24388949 </i>
    <i name="e_wo_entrp">   -828.13745574 </i>
    <i name="e_0_energy">   -828.19067261 </i>
   </energy>
  </scstep>
  <scstep>
   <time name="diag">   66.53   66.55</time>
   <time name="diis">  535.50  535.76</time>
   <time name="orth">   19.79   19.79</time>
   <time name="total">  636.62  636.91</time>
   <energy>
    <i name="e_fr_energy">   -828.26316677 </i>
    <i name="e_wo_entrp">   -828.15752502 </i>
    <i name="e_0_energy">   -828.21034590 </i>
   </energy>
  </scstep>
  <scstep>
   <time name="diag">   66.64   66.68</time>
   <time name="diis">  518.55  518.75</time>
   <time name="orth">   19.85   19.85</time>
   <time name="total">  619.83  620.08</time>
   <energy>
    <i name="e_fr_energy">   -828.26708876 </i>
    <i name="e_wo_entrp">   -828.16163513 </i>
    <i name="e_0_energy">   -828.21436194 </i>
   </energy>
  </scstep>
  <scstep>
   <time name="diag">   66.80   66.84</time>
   <time name="diis">  504.26  504.46</time>
   <time name="orth">   19.87   19.88</time>
   <time name="total">  605.69  605.95</time>
   <energy>
    <i name="e_fr_energy">   -828.26858518 </i>
    <i name="e_wo_entrp">   -828.16315970 </i>
    <i name="e_0_energy">   -828.21587244 </i>
   </energy>
  </scstep>
  <scstep>
   <time name="diag">   66.66   66.70</time>
   <time name="diis">  526.13  526.34</time>
   <time name="orth">   19.86   19.88</time>
   <time name="total">  627.47  627.75</time>
   <energy>
    <i name="e_fr_energy">   -828.26963154 </i>
    <i name="e_wo_entrp">   -828.16425681 </i>
    <i name="e_0_energy">   -828.21694418 </i>
   </energy>
  </scstep>
  <scstep>
   <time name="diag">   66.63   66.65</time>
   <time name="diis">  473.32  473.53</time>
   <time name="orth">   19.88   19.89</time>
   <time name="total">  574.64  574.88</time>
   <energy>
    <i name="e_fr_energy">   -828.26988641 </i>
    <i name="e_wo_entrp">   -828.16456713 </i>
    <i name="e_0_energy">   -828.21722677 </i>
   </energy>
  </scstep>
  <scstep>
   <time name="diag">   66.73   66.77</time>
   <time name="diis">  471.92  472.13</time>
   <time name="orth">   19.88   19.89</time>
   <time name="total">  573.34  573.59</time>
   <energy>
    <i name="e_fr_energy">   -828.27006458 </i>
    <i name="e_wo_entrp">   -828.16481160 </i>
    <i name="e_0_energy">   -828.21743809 </i>
   </energy>
  </scstep>
  <scstep>
   <time name="diag">   66.65   66.69</time>
   <time name="diis">  435.88  436.04</time>
   <time name="orth">   19.89   19.90</time>
   <time name="total">  537.28  537.49</time>
   <energy>
    <i name="e_fr_energy">   -828.27026399 </i>
    <i name="e_wo_entrp">   -828.16503948 </i>
    <i name="e_0_energy">   -828.21765173 </i>
   </energy>
  </scstep>
  <scstep>
   <time name="diag">   66.64   66.68</time>
   <time name="diis">  411.23  411.38</time>
   <time name="orth">   19.91   19.92</time>
   <time name="total">  512.68  512.88</time>
   <energy>
    <i name="e_fr_energy">   -828.27044287 </i>
    <i name="e_wo_entrp">   -828.16524064 </i>
    <i name="e_0_energy">   -828.21784176 </i>
   </energy>
  </scstep>
  <scstep>
   <time name="diag">   66.67   66.70</time>
   <time name="diis">  370.83  370.96</time>
   <time name="orth">   19.90   19.90</time>
   <time name="total">  472.16  472.32</time>
   <energy>
    <i name="e_fr_energy">   -828.27062891 </i>
    <i name="e_wo_entrp">   -828.16541920 </i>
    <i name="e_0_energy">   -828.21802406 </i>
   </energy>
  </scstep>
  <scstep>
   <time name="diag">   66.74   66.76</time>
   <time name="diis">  351.85  351.96</time>
   <time name="orth">   19.92   19.92</time>
   <time name="total">  453.34  453.49</time>
   <energy>
    <i name="e_fr_energy">   -828.27080543 </i>
    <i name="e_wo_entrp">   -828.16561352 </i>
    <i name="e_0_energy">   -828.21820948 </i>
   </energy>
  </scstep>
  <scstep>
   <time name="diag">   66.65   66.68</time>
   <time name="diis">  336.84  336.99</time>
   <time name="orth">   19.95   19.95</time>
   <time name="total">  438.31  438.53</time>
   <energy>
    <i name="e_fr_energy">   -828.27090647 </i>
    <i name="e_wo_entrp">   -828.16572069 </i>
    <i name="e_0_energy">   -828.21831358 </i>
   </energy>
  </scstep>
  <scstep>
   <time name="diag">   66.74   66.81</time>
   <time name="diis">  333.92  334.10</time>
   <time name="orth">   19.86   19.86</time>
   <time name="total">  435.34  435.60</time>
   <energy>
    <i name="e_fr_energy">   -828.27098540 </i>
    <i name="e_wo_entrp">   -828.16579538 </i>
    <i name="e_0_energy">   -828.21839039 </i>
   </energy>
  </scstep>
  <scstep>
   <time name="diag">   66.67   66.70</time>
   <time name="diis">  342.69  342.83</time>
   <time name="orth">   19.93   19.93</time>
   <time name="total">  444.09  444.28</time>
   <energy>
    <i name="e_fr_energy">   -828.27108609 </i>
    <i name="e_wo_entrp">   -828.16587400 </i>
    <i name="e_0_energy">   -828.21848004 </i>
   </energy>
  </scstep>
  <scstep>
   <time name="diag">   66.76   66.79</time>
   <time name="diis">  331.93  332.07</time>
   <time name="orth">   19.95   19.97</time>
   <time name="total">  433.39  433.59</time>
   <energy>
    <i name="e_fr_energy">   -828.27113452 </i>
    <i name="e_wo_entrp">   -828.16591036 </i>
    <i name="e_0_energy">   -828.21852244 </i>
   </energy>
  </scstep>
  <scstep>
   <time name="diag">   66.65   66.67</time>
   <time name="diis">  326.68  326.83</time>
   <time name="orth">   19.87   19.88</time>
   <time name="total">  428.02  428.20</time>
   <energy>
    <i name="e_fr_energy">   -828.27115527 </i>
    <i name="e_wo_entrp">   -828.16592883 </i>
    <i name="e_0_energy">   -828.21854205 </i>
   </energy>
  </scstep>
  <scstep>
   <time name="diag">   66.67   66.69</time>
   <time name="diis">  323.48  323.61</time>
   <time name="orth">   19.92   19.92</time>
   <time name="total">  424.89  425.08</time>
   <energy>
    <i name="e_fr_energy">   -828.27116795 </i>
    <i name="e_wo_entrp">   -828.16594376 </i>
    <i name="e_0_energy">   -828.21855585 </i>
   </energy>
  </scstep>
  <scstep>
   <time name="diag">   66.64   66.66</time>
   <time name="diis">  321.59  321.73</time>
   <time name="orth">   19.97   19.99</time>
   <time name="total">  423.04  423.22</time>
   <energy>
    <i name="e_fr_energy">   -828.27117606 </i>
    <i name="e_wo_entrp">   -828.16595626 </i>
    <i name="e_0_energy">   -828.21856616 </i>
   </energy>
  </scstep>
  <scstep>
   <time name="diag">   66.62   66.64</time>
   <time name="diis">  318.43  318.53</time>
   <time name="orth">   19.93   19.94</time>
   <time name="total">  406.65  406.78</time>
   <energy>
    <i name="alphaZ">    315.09161757 </i>
    <i name="ewald"> 106158.79682208 </i>
    <i name="hartreedc">-160965.52988009 </i>
    <i name="XCdc">   2669.51891525 </i>
    <i name="pawpsdc">  98643.74893671 </i>
    <i name="pawaedc">-101400.30304110 </i>
    <i name="eentropy">     -0.10521334 </i>
    <i name="bandstr">  -8392.63674581 </i>
    <i name="atom">  62143.14740716 </i>
    <i name="e_fr_energy">   -828.27118157 </i>
    <i name="e_wo_entrp">   -828.16596823 </i>
    <i name="e_0_energy">   -828.21857490 </i>
   </energy>
  </scstep>
  <structure>
   <crystal>
    <varray name="basis" >
     <v>      26.26650047       0.00000000       0.00000000 </v>
     <v>     -13.13288029      22.74974710       0.00000000 </v>
     <v>       0.00000000       0.00000000      20.20179939 </v>
    </varray>
    <i name="volume">  12071.71134534 </i>
    <varray name="rec_basis" >
     <v>       0.03807131       0.02197765       0.00000000 </v>
     <v>       0.00000000       0.04395653       0.00000000 </v>
     <v>       0.00000000       0.00000000       0.04950054 </v>
    </varray>
   </crystal>
   <varray name="positions" >
    <v>       0.02985246       0.30215457       0.50000002 </v>
    <v>       0.02982867       0.06203322       0.50000002 </v>
    <v>       0.26995370       0.30214841       0.50000002 </v>
    <v>       0.06091427       0.03096386       0.50000002 </v>
    <v>       0.30103537       0.27107730       0.50000002 </v>
    <v>       0.30101632       0.03095859       0.50000002 </v>
    <v>       0.36318715       0.30215501       0.50000002 </v>
    <v>       0.36316504       0.06203322       0.50000002 </v>
    <v>       0.60328849       0.30214753       0.50000002 </v>
    <v>       0.39424862       0.03096210       0.50000002 </v>
    <v>       0.63436826       0.27107642       0.50000002 </v>
    <v>       0.63434839       0.03095683       0.50000002 </v>
    <v>       0.69652178       0.30215457       0.50000002 </v>
    <v>       0.69649902       0.06203146       0.50000002 </v>
    <v>       0.93661959       0.30214841       0.50000002 </v>
    <v>       0.72758311       0.03096518       0.50000002 </v>
    <v>       0.96769990       0.27107686       0.50000002 </v>
    <v>       0.96768058       0.03095683       0.50000002 </v>
    <v>       0.02985094       0.63548662       0.50000002 </v>
    <v>       0.02982955       0.39536703       0.50000002 </v>
    <v>       0.26995278       0.63548091       0.50000002 </v>
    <v>       0.06091254       0.36429856       0.50000002 </v>
    <v>       0.30103621       0.60441331       0.50000002 </v>
    <v>       0.30101454       0.36429240       0.50000002 </v>
    <v>       0.36318645       0.63548794       0.50000002 </v>
    <v>       0.36316592       0.39536703       0.50000002 </v>
    <v>       0.60328757       0.63548003       0.50000002 </v>
    <v>       0.39424689       0.36429680       0.50000002 </v>
    <v>       0.63436909       0.60441243       0.50000002 </v>
    <v>       0.63434661       0.36429064       0.50000002 </v>
    <v>       0.69652146       0.63548750       0.50000002 </v>
    <v>       0.69649989       0.39536527       0.50000002 </v>
    <v>       0.93661893       0.63547915       0.50000002 </v>
    <v>       0.72758100       0.36429987       0.50000002 </v>
    <v>       0.96769980       0.60441024       0.50000002 </v>
    <v>       0.96767917       0.36429064       0.50000002 </v>
    <v>       0.02985096       0.96882176       0.50000002 </v>
    <v>       0.02982841       0.72869909       0.50000002 </v>
    <v>       0.26995289       0.96881473       0.50000002 </v>
    <v>       0.06091242       0.69762885       0.50000002 </v>
    <v>       0.30103555       0.93774405       0.50000002 </v>
    <v>       0.30101744       0.69762797       0.50000002 </v>
    <v>       0.36318603       0.96882220       0.50000002 </v>
    <v>       0.36316456       0.72869865       0.50000002 </v>
    <v>       0.60328807       0.96881385       0.50000002 </v>
    <v>       0.39424760       0.69762797       0.50000002 </v>
    <v>       0.63436806       0.93774317       0.50000002 </v>
    <v>       0.63434973       0.69762666       0.50000002 </v>
    <v>       0.69652066       0.96882176       0.50000002 </v>
    <v>       0.69649875       0.72869733       0.50000002 </v>
    <v>       0.93661879       0.96881473       0.50000002 </v>
    <v>       0.72758208       0.69763105       0.50000002 </v>
    <v>       0.96769970       0.93774361       0.50000002 </v>
    <v>       0.96768163       0.69762534       0.50000002 </v>
    <v>       0.65581611       0.33448064       0.75001339 </v>
    <v>       0.06787467       0.13812813       0.50000002 </v>
    <v>       0.19384621       0.26408689       0.50000002 </v>
    <v>       0.13701868       0.06901923       0.50000002 </v>
    <v>       0.26297787       0.19497843       0.50000002 </v>
    <v>       0.26296372       0.06901659       0.50000002 </v>
    <v>       0.40124843       0.26411283       0.50000002 </v>
    <v>       0.40120838       0.13812813       0.50000002 </v>
    <v>       0.52718536       0.26408865       0.50000002 </v>
    <v>       0.47035015       0.06901703       0.50000002 </v>
    <v>       0.59631457       0.19497755       0.50000002 </v>
    <v>       0.59630057       0.06901527       0.50000002 </v>
    <v>       0.73458497       0.26411239       0.50000002 </v>
    <v>       0.73454231       0.13812857       0.50000002 </v>
    <v>       0.86051565       0.26408865       0.50000002 </v>
    <v>       0.80368550       0.06901879       0.50000002 </v>
    <v>       0.92964469       0.19497799       0.50000002 </v>
    <v>       0.92963162       0.06901527       0.50000002 </v>
    <v>       0.06791619       0.59744400       0.50000002 </v>
    <v>       0.06787327       0.47146194       0.50000002 </v>
    <v>       0.19384798       0.59742554       0.50000002 </v>
    <v>       0.13702038       0.40235392       0.50000002 </v>
    <v>       0.26297521       0.52831049       0.50000002 </v>
    <v>       0.26296366       0.40234777       0.50000002 </v>
    <v>       0.40124843       0.59744488       0.50000002 </v>
    <v>       0.40120720       0.47146238       0.50000002 </v>
    <v>       0.52718714       0.59742730       0.50000002 </v>
    <v>       0.47035185       0.40235173       0.50000002 </v>
    <v>       0.59631190       0.52830961       0.50000002 </v>
    <v>       0.59630013       0.40234645       0.50000002 </v>
    <v>       0.73458497       0.59744444       0.50000002 </v>
    <v>       0.73454113       0.47146282       0.50000002 </v>
    <v>       0.86051758       0.59742686       0.50000002 </v>
    <v>       0.80368720       0.40235348       0.50000002 </v>
    <v>       0.92964333       0.52830961       0.50000002 </v>
    <v>       0.92963134       0.40234601       0.50000002 </v>
    <v>       0.06791641       0.93077650       0.50000002 </v>
    <v>       0.06787513       0.80479620       0.50000002 </v>
    <v>       0.19384618       0.93075628       0.50000002 </v>
    <v>       0.13701804       0.73568510       0.50000002 </v>
    <v>       0.26297675       0.86164562       0.50000002 </v>
    <v>       0.26296362       0.73568202       0.50000002 </v>
    <v>       0.40124887       0.93077782       0.50000002 </v>
    <v>       0.40120884       0.80479620       0.50000002 </v>
    <v>       0.52718594       0.93075848       0.50000002 </v>
    <v>       0.47034973       0.73568334       0.50000002 </v>
    <v>       0.59631306       0.86164474       0.50000002 </v>
    <v>       0.59630009       0.73568071       0.50000002 </v>
    <v>       0.73458541       0.93077738       0.50000002 </v>
    <v>       0.73454277       0.80479664       0.50000002 </v>
    <v>       0.86051622       0.93075848       0.50000002 </v>
    <v>       0.80368529       0.73568554       0.50000002 </v>
    <v>       0.92964356       0.86164518       0.50000002 </v>
    <v>       0.92963152       0.73568071       0.50000002 </v>
    <v>       0.06791597       0.26411151       0.50000002 </v>
    <v>       0.72222789       0.31985894       0.70665685 </v>
    <v>       0.67354180       0.41890400       0.71410570 </v>
    <v>       0.56939409       0.26572999       0.72240446 </v>
    <v>       0.65804663       0.33360635       0.85640738 </v>
    <v>       0.49876995       0.33322173       0.50000002 </v>
    <v>       0.99876467       0.16657372       0.50000002 </v>
    <v>       0.83207394       0.16654691       0.50000002 </v>
    <v>       0.83210083       0.33322217       0.50000002 </v>
    <v>       0.33209655       0.49990666       0.50000002 </v>
    <v>       0.16540818       0.49988380       0.50000002 </v>
    <v>       0.16543317       0.66655906       0.50000002 </v>
    <v>       0.66543347       0.49990622       0.50000002 </v>
    <v>       0.49874265       0.49988380       0.50000002 </v>
    <v>       0.49877008       0.66655862       0.50000002 </v>
    <v>       0.99876467       0.49990578       0.50000002 </v>
    <v>       0.83207331       0.49988380       0.50000002 </v>
    <v>       0.83210096       0.66655906       0.50000002 </v>
    <v>       0.33209753       0.83323915       0.50000002 </v>
    <v>       0.16540921       0.83321410       0.50000002 </v>
    <v>       0.16543339       0.99989155       0.50000002 </v>
    <v>       0.66543407       0.83323871       0.50000002 </v>
    <v>       0.49874330       0.83321410       0.50000002 </v>
    <v>       0.49876992       0.99989112       0.50000002 </v>
    <v>       0.99876413       0.83323827       0.50000002 </v>
    <v>       0.83207402       0.83321498       0.50000002 </v>
    <v>       0.83210080       0.99989155       0.50000002 </v>
    <v>       0.33209808       0.16657460       0.50000002 </v>
    <v>       0.16540875       0.16654603       0.50000002 </v>
    <v>       0.16543303       0.33322217       0.50000002 </v>
    <v>       0.66543439       0.16657372       0.50000002 </v>
    <v>       0.49874322       0.16654603       0.50000002 </v>
   </varray>
  </structure>
  <varray name="forces" >
   <v>      -0.01499769      -0.00992632       0.00039868 </v>
   <v>       0.00430795      -0.01622448       0.00002881 </v>
   <v>       0.01092996      -0.01268270       0.00046743 </v>
   <v>      -0.01156590      -0.00372340      -0.00015546 </v>
   <v>      -0.01114198       0.00390536       0.00075767 </v>
   <v>      -0.00371740      -0.00846977       0.00079270 </v>
   <v>       0.01918644      -0.02704416      -0.00261231 </v>
   <v>      -0.00666342       0.02935819      -0.00263907 </v>
   <v>      -0.14658645      -0.09159661       0.01667079 </v>
   <v>       0.02680040       0.00764531      -0.00172559 </v>
   <v>       0.00542450      -0.15259952       0.01851091 </v>
   <v>      -0.02023992       0.00662401      -0.00190081 </v>
   <v>       0.14183883      -0.08394409       0.01988822 </v>
   <v>       0.00861701       0.02239745      -0.00207543 </v>
   <v>      -0.01618508      -0.02297965      -0.00213118 </v>
   <v>       0.00006900      -0.01063423       0.00065892 </v>
   <v>       0.01018946       0.00707726       0.00066501 </v>
   <v>       0.01187307      -0.00262919      -0.00007602 </v>
[...]
    <v>       0.36318737       0.72869191       0.49999912 </v>
    <v>       0.60323083       0.96880671       0.49999214 </v>
    <v>       0.39425482       0.69762621       0.49999650 </v>
    <v>       0.63438990       0.93782480       0.50001105 </v>
    <v>       0.63440573       0.69758345       0.50001342 </v>
    <v>       0.69648066       0.96886790       0.50001161 </v>
    <v>       0.69648394       0.72861393       0.50001390 </v>
    <v>       0.93663926       0.96884142       0.49999695 </v>
    <v>       0.72766969       0.69766451       0.49999213 </v>
    <v>       0.96769640       0.93775509       0.49999892 </v>
    <v>       0.96766400       0.69765560       0.49998838 </v>
    <v>       0.65607527       0.33465825       0.74864599 </v>
    <v>       0.06789781       0.13814886       0.49997588 </v>
    <v>       0.19393215       0.26414799       0.49999625 </v>
    <v>       0.13704584       0.06902603       0.49999856 </v>
    <v>       0.26301865       0.19497667       0.49996142 </v>
    <v>       0.26301337       0.06905636       0.49995515 </v>
    <v>       0.40135176       0.26412065       0.49990235 </v>
    <v>       0.40135989       0.13823431       0.49989459 </v>
    <v>       0.52742416       0.26425423       0.50018843 </v>
    <v>       0.47045991       0.06918534       0.49989570 </v>
    <v>       0.59640589       0.19519768       0.50012465 </v>
    <v>       0.59635570       0.06914946       0.49991572 </v>
    <v>       0.73444316       0.26418171       0.50009226 </v>
    <v>       0.73451702       0.13823297       0.49990914 </v>
    <v>       0.86042179       0.26417549       0.49991049 </v>
    <v>       0.80370196       0.06906489       0.49996637 </v>
    <v>       0.92958716       0.19497931       0.49996527 </v>
    <v>       0.92963725       0.06900067       0.49999791 </v>
    <v>       0.06782482       0.59735480       0.49996786 </v>
    <v>       0.06783958       0.47146255       0.49996517 </v>
    <v>       0.19384036       0.59745051       0.49999858 </v>
    <v>       0.13696564       0.40233265       0.49999475 </v>
    <v>       0.26295357       0.52829241       0.49997620 </v>
    <v>       0.26303046       0.40230254       0.49999690 </v>
    <v>       0.40120046       0.59740347       0.49999987 </v>
    <v>       0.40127225       0.47146276       0.49996285 </v>
    <v>       0.52719462       0.59740559       0.49995848 </v>
    <v>       0.47046916       0.40229789       0.49990465 </v>
    <v>       0.59635350       0.52819788       0.49989600 </v>
    <v>       0.59640568       0.40223042       0.50012067 </v>
    <v>       0.73448205       0.59723582       0.49989609 </v>
    <v>       0.73446091       0.47127919       0.50016570 </v>
    <v>       0.86042459       0.59731790       0.49991312 </v>
    <v>       0.80352197       0.40227414       0.50008947 </v>
    <v>       0.92947391       0.52821520       0.49990876 </v>
    <v>       0.92948337       0.40226954       0.49991359 </v>
    <v>       0.06788396       0.93072166       0.49997486 </v>
    <v>       0.06783400       0.80472684       0.49999800 </v>
    <v>       0.19393062       0.93084981       0.49999506 </v>
    <v>       0.13696062       0.73563927       0.49999569 </v>
    <v>       0.26302150       0.86173815       0.49999491 </v>
    <v>       0.26295959       0.73567507       0.49997784 </v>
    <v>       0.40124387       0.93079140       0.49996233 </v>
    <v>       0.40122266       0.80480999       0.49999815 </v>
    <v>       0.52719318       0.93084046       0.49996325 </v>
    <v>       0.47037223       0.73569212       0.49997596 </v>
    <v>       0.59632278       0.86172349       0.49999634 </v>
    <v>       0.59633314       0.73559732       0.49999586 </v>
    <v>       0.73451651       0.93078330       0.49999652 </v>
    <v>       0.73452812       0.80471363       0.49999579 </v>
    <v>       0.86051385       0.93078638       0.49997659 </v>
    <v>       0.80369543       0.73563161       0.49995936 </v>
    <v>       0.92962935       0.86164402       0.49999921 </v>
    <v>       0.92958738       0.73561778       0.49995978 </v>
    <v>       0.06782153       0.26408928       0.49999493 </v>
    <v>       0.72144433       0.31736043       0.70470614 </v>
    <v>       0.67109360       0.41884954       0.71179701 </v>
    <v>       0.56981433       0.26648659       0.71643373 </v>
    <v>       0.66072975       0.33525937       0.85637316 </v>
    <v>       0.49898298       0.33319727       0.50116126 </v>
    <v>       0.99871892       0.16652881       0.50004281 </v>
    <v>       0.83204139       0.16664596       0.50021506 </v>
    <v>       0.83179705       0.33319993       0.50120956 </v>
    <v>       0.33204764       0.49984044       0.50004443 </v>
    <v>       0.16541858       0.49990300       0.50004214 </v>
    <v>       0.16539700       0.66655421       0.50004107 </v>
    <v>       0.66538434       0.49957043       0.50152001 </v>
    <v>       0.49882940       0.49984926       0.50024955 </v>
    <v>       0.49874271       0.66654898       0.50004672 </v>
    <v>       0.99859546       0.49978963       0.50020338 </v>
    <v>       0.83182385       0.49966778       0.50097701 </v>
    <v>       0.83199280       0.66641651       0.50024564 </v>
    <v>       0.33204970       0.83319539       0.50004536 </v>
    <v>       0.16542330       0.83324993       0.50004149 </v>
    <v>       0.16541239       0.99988234       0.50004937 </v>
    <v>       0.66538182       0.83318667       0.50004119 </v>
    <v>       0.49876963       0.83325475       0.50004268 </v>
    <v>       0.49878459       0.00000047       0.50021525 </v>
    <v>       0.99871742       0.83317891       0.50004455 </v>
    <v>       0.83208443       0.83323879       0.50004684 </v>
    <v>       0.83205877       0.99987963       0.50004142 </v>
    <v>       0.33218440       0.16658317       0.50026914 </v>
    <v>       0.16543477       0.16659357       0.50004664 </v>
    <v>       0.16540187       0.33321923       0.50004045 </v>
    <v>       0.66541539       0.16678633       0.50096592 </v>
    <v>       0.49899293       0.16686558       0.50136546 </v>
   </varray>
  </structure>
  <varray name="forces" >
   <v>      -0.01058137      -0.08157497      -0.00207114 </v>
   <v>       0.00450165       0.00561629      -0.00013570 </v>
   <v>       0.00174062      -0.08990831      -0.00246595 </v>
   <v>       0.00749335       0.00765217      -0.00008842 </v>
   <v>       0.08247143       0.07775820      -0.00111506 </v>
   <v>       0.09103566       0.04335837      -0.00091774 </v>
   <v>      -0.03938397       0.01364567       0.00255693 </v>
   <v>      -0.00387610      -0.04043982       0.00266557 </v>
   <v>       0.03248685       0.04500076       0.01638793 </v>
   <v>      -0.04605256      -0.00742659       0.00273524 </v>
   <v>       0.00582089       0.04065597       0.01761020 </v>
   <v>       0.02678358      -0.00854333       0.00198271 </v>
   <v>      -0.01102207       0.01154775       0.00972226 </v>
   <v>      -0.00508251      -0.03660173       0.00186132 </v>
   <v>       0.02713912       0.00405600       0.00240112 </v>
   <v>      -0.09128284       0.03079986      -0.00109985 </v>
   <v>      -0.06422695       0.07181789      -0.00112473 </v>
   <v>      -0.01219985       0.01132122      -0.00021211 </v>
   <v>      -0.09450439      -0.03918103      -0.00159175 </v>
   <v>      -0.07764316      -0.07570624      -0.00133720 </v>
   <v>      -0.00152538      -0.01854237      -0.00014420 </v>
   <v>       0.00397776       0.07764827      -0.00193578 </v>
   <v>      -0.00968951      -0.01396051      -0.00016494 </v>
   <v>       0.00315527       0.07775096      -0.00210159 </v>
   <v>       0.00277625      -0.00646917      -0.00009428 </v>
   <v>       0.08015379      -0.07943359      -0.00149171 </v>
   <v>       0.11087348      -0.04427427      -0.00136437 </v>
   <v>      -0.03338489      -0.01870092       0.00260405 </v>
   <v>       0.01708928       0.02854611       0.00318329 </v>
   <v>       0.04653319      -0.01253493       0.01756127 </v>
   <v>      -0.04107058       0.01076561       0.00306635 </v>
   <v>      -0.01191249      -0.06077809       0.01336117 </v>
   <v>       0.03401635       0.00704196       0.00197318 </v>
   <v>      -0.02805248       0.00359150       0.01390828 </v>
   <v>       0.00083426       0.04169038       0.00200596 </v>
   <v>       0.03806467      -0.01380411       0.00245138 </v>
   <v>       0.01983218      -0.01889946      -0.00013117 </v>
   <v>      -0.06677067       0.02441478      -0.00206836 </v>
   <v>      -0.05385871       0.03368701      -0.00255971 </v>
   <v>       0.06238202      -0.03541951      -0.00160474 </v>
   <v>       0.04964887      -0.02870229      -0.00186870 </v>
   <v>      -0.01928832       0.01123432      -0.00008055 </v>
   <v>      -0.01526789       0.09591956      -0.00179977 </v>
   <v>      -0.00364796       0.00913931      -0.00015263 </v>
   <v>       0.02374519       0.09345214      -0.00131636 </v>
   <v>       0.00333408       0.00286588      -0.00018244 </v>
   <v>      -0.05303431      -0.02571524      -0.00172245 </v>
   <v>      -0.06016586      -0.03812401      -0.00247728 </v>
   <v>       0.05671943       0.02640786      -0.00181626 </v>
   <v>       0.06179245       0.04062787      -0.00247767 </v>
   <v>       0.00100548      -0.01828528      -0.00013469 </v>
   <v>      -0.02014496      -0.12095561      -0.00131573 </v>
   <v>      -0.00084603       0.00322667      -0.00012525 </v>
   <v>       0.02136300      -0.09157496      -0.00086359 </v>
   <v>       0.00144439       0.02036903       0.11955587 </v>
   <v>      -0.00287859      -0.00547395      -0.00074703 </v>
   <v>      -0.00453761       0.00564822       0.00090819 </v>
   <v>      -0.01151694      -0.00557532       0.00153049 </v>
   <v>      -0.00986826      -0.01318360      -0.00037026 </v>
   <v>      -0.01082771      -0.00287020      -0.00082536 </v>
   <v>      -0.02285068       0.01469582       0.00319925 </v>
   <v>      -0.00300308      -0.03225284       0.00471544 </v>
   <v>       0.00369921      -0.00513233       0.02061576 </v>
   <v>      -0.01716977      -0.01644430       0.00462854 </v>
   <v>      -0.00077561       0.00371979       0.01937952 </v>
   <v>       0.02177647      -0.01578324       0.00280261 </v>
   <v>      -0.02691488       0.01663987       0.01836927 </v>
   <v>       0.00081848      -0.02784403       0.00248931 </v>
   <v>       0.02933505       0.01048598       0.00421862 </v>
   <v>       0.01580053       0.00172975      -0.00052847 </v>
   <v>       0.00566414      -0.01224558      -0.00073209 </v>
   <v>       0.00104326      -0.00124037       0.00133405 </v>
   <v>       0.01575975       0.00359484      -0.00038481 </v>
   <v>       0.00577638       0.02127762      -0.00074072 </v>
   <v>       0.01271291       0.00580514       0.00128321 </v>
   <v>       0.00298738      -0.00634403       0.00067741 </v>
   <v>       0.00104133       0.01722719      -0.00078041 </v>
   <v>      -0.01577133      -0.00021063       0.00093763 </v>
   <v>       0.00326084       0.00314179       0.00168402 </v>
   <v>      -0.00889803       0.02368227      -0.00042215 </v>
   <v>      -0.02468055      -0.00507905      -0.00073862 </v>
   <v>      -0.02856221      -0.01252610       0.00312977 </v>
   <v>      -0.00669333       0.04612841       0.00533952 </v>
   <v>       0.01478954      -0.01236665       0.02083512 </v>
   <v>      -0.02961695       0.02617030       0.00531772 </v>
   <v>      -0.00143445      -0.02019892       0.02164163 </v>
   <v>       0.02387175       0.01536848       0.00268695 </v>
   <v>      -0.03047908      -0.02237668       0.01857178 </v>
   <v>       0.00416442       0.02894518       0.00251163 </v>
   <v>       0.01659651      -0.00548227       0.00445998 </v>
   <v>      -0.01614699       0.01406053      -0.00082951 </v>
   <v>       0.00697948       0.01111812       0.00102537 </v>
   <v>       0.00024062      -0.01302190       0.00078281 </v>
   <v>      -0.00185128       0.00885052       0.00085214 </v>
   <v>      -0.00619403      -0.01021342       0.00066802 </v>
   <v>       0.01059992      -0.00409642      -0.00063752 </v>
   <v>       0.01839566      -0.01483724      -0.00061423 </v>
   <v>      -0.00005697      -0.00631183       0.00138707 </v>
   <v>      -0.01377975      -0.01786057      -0.00060715 </v>
   <v>      -0.00031132      -0.00052473      -0.00076147 </v>
   <v>       0.00771910      -0.00800782       0.00088816 </v>
   <v>      -0.01326688       0.01881362       0.00072540 </v>
   <v>       0.00004543      -0.00460176       0.00092073 </v>
   <v>      -0.01047184       0.00981080       0.00067414 </v>
   <v>       0.00340743       0.00113542      -0.00068845 </v>
   <v>       0.01293595       0.02011181      -0.00067850 </v>
   <v>      -0.00028858       0.00540898       0.00152535 </v>
   <v>      -0.01449306       0.01614283      -0.00072245 </v>
   <v>       0.00969142       0.00889546       0.00074934 </v>
   <v>      -0.05278760       0.01784001      -0.02004644 </v>
   <v>       0.03258947      -0.07929071      -0.01699779 </v>
   <v>       0.01984435       0.02987910      -0.05042674 </v>
   <v>       0.00255931       0.01234871      -0.38438399 </v>
   <v>      -0.03147275       0.00176041       0.01189768 </v>
   <v>      -0.00267562       0.00247918       0.00132053 </v>
   <v>      -0.00181109      -0.00196993       0.00486092 </v>
   <v>       0.04301517       0.00198883       0.00457107 </v>
   <v>       0.00466153       0.00417535       0.00129763 </v>
   <v>      -0.00499799      -0.00161773       0.00130563 </v>
   <v>       0.00040905      -0.00433325       0.00122860 </v>
   <v>      -0.01570748       0.03769699       0.00780043 </v>
   <v>       0.00025300      -0.00364504       0.00634076 </v>
   <v>       0.00420581      -0.00448055       0.00139696 </v>
   <v>      -0.00056882       0.00227826       0.00477858 </v>
   <v>       0.02085848       0.03140502       0.00794044 </v>
   <v>       0.00409770      -0.00182810       0.00557981 </v>
   <v>       0.00210876       0.00641412       0.00142152 </v>
   <v>      -0.00095566      -0.00185935       0.00244760 </v>
   <v>       0.00317940       0.00340318       0.00149239 </v>
   <v>       0.00131559       0.00188061       0.00251107 </v>
   <v>      -0.00417042       0.00121229       0.00118297 </v>
   <v>       0.00353927       0.00359888       0.00527434 </v>
   <v>      -0.00176155      -0.00017690       0.00125587 </v>
   <v>       0.00120628      -0.00567091       0.00148101 </v>
   <v>       0.00155260       0.00329186       0.00121943 </v>
   <v>       0.00019749       0.00436269       0.00558365 </v>
   <v>       0.00383857      -0.00310386       0.00141617 </v>
   <v>       0.00347951      -0.00094194       0.00244604 </v>
   <v>       0.01799766      -0.02754226       0.00899124 </v>
   <v>      -0.01347196      -0.03211094       0.00771562 </v>
  </varray>
  <varray name="stress" >
   <v>      -1.01415605      -0.00200840      -0.00062754 </v>
   <v>      -0.00200842      -1.06168286       0.00711658 </v>
   <v>      -0.00062752       0.00711659      -0.51503974 </v>
  </varray>
  <energy>
   <i name="e_fr_energy">   -837.32437406 </i>
   <i name="e_wo_entrp">   -837.27207141 </i>
   <i name="e_0_energy">     -0.10460529 </i>
  </energy>
  <time name="totalsc">16321.4816327.14</time>
 </calculation>
 <calculation>
  <scstep>
   <time name="dav">  840.98  841.31</time>
   <time name="total">  855.61  855.95</time>
   <energy>
    <i name="alphaZ">    315.09161757 </i>
    <i name="ewald"> 106288.26453475 </i>
    <i name="hartreedc">-161093.65813098 </i>
    <i name="XCdc">   2669.40031570 </i>
    <i name="pawpsdc">  98656.72721854 </i>
    <i name="pawaedc">-101413.24110633 </i>
    <i name="eentropy">     -0.10418247 </i>
    <i name="bandstr">  -8393.92640393 </i>
    <i name="atom">  62143.14740716 </i>
    <i name="e_fr_energy">   -828.29873001 </i>
    <i name="e_wo_entrp">   -828.19454754 </i>
    <i name="e_0_energy">   -828.24663877 </i>
   </energy>
  </scstep>
  <scstep>
   <time name="diag">   66.85   66.87</time>
   <time name="diis">  626.09  626.31</time>
   <time name="orth">   19.94   19.94</time>
   <time name="total">  727.47  727.73</time>
   <energy>
    <i name="e_fr_energy">   -828.30298610 </i>
    <i name="e_wo_entrp">   -828.19680299 </i>
    <i name="e_0_energy">   -828.24989455 </i>
   </energy>
  </scstep>
  <scstep>
   <time name="diag">   67.00   67.02</time>
   <time name="diis">  620.39  620.61</time>
   <time name="orth">   19.91   19.91</time>
   <time name="total">  721.84  722.08</time>
   <energy>
    <i name="e_fr_energy">   -828.30342325 </i>
    <i name="e_wo_entrp">   -828.20271760 </i>
    <i name="e_0_energy">   -828.25307043 </i>
   </energy>
  </scstep>
  <scstep>
   <time name="diag">   66.99   67.01</time>
   <time name="diis">  560.25  560.46</time>
   <time name="orth">   19.93   19.94</time>
   <time name="total">  661.70  661.95</time>
   <energy>
    <i name="e_fr_energy">   -828.30298913 </i>
    <i name="e_wo_entrp">   -828.19856710 </i>
    <i name="e_0_energy">   -828.25077811 </i>
   </energy>
  </scstep>
  <scstep>
   <time name="diag">   66.87   66.89</time>
   <time name="diis">  542.36  542.55</time>
   <time name="orth">   19.95   19.95</time>
   <time name="total">  643.70  643.92</time>
   <energy>
    <i name="e_fr_energy">   -828.30291100 </i>
    <i name="e_wo_entrp">   -828.19758218 </i>
    <i name="e_0_energy">   -828.25024659 </i>
   </energy>
  </scstep>
  <scstep>
   <time name="diag">   66.72   66.74</time>
   <time name="diis">  584.64  584.87</time>
   <time name="orth">   19.94   19.94</time>
   <time name="total">  685.87  686.13</time>
   <energy>
    <i name="e_fr_energy">   -828.30275485 </i>
    <i name="e_wo_entrp">   -828.19813677 </i>
    <i name="e_0_energy">   -828.25044581 </i>
   </energy>
  </scstep>
  <scstep>
   <time name="diag">   66.88   66.90</time>
   <time name="diis">  574.69  574.89</time>
   <time name="orth">   19.94   19.95</time>
   <time name="total">  676.04  676.28</time>
   <energy>
    <i name="e_fr_energy">   -828.30273834 </i>
    <i name="e_wo_entrp">   -828.19778638 </i>
    <i name="e_0_energy">   -828.25026236 </i>
   </energy>
  </scstep>
  <scstep>
   <time name="diag">   66.82   66.84</time>
   <time name="diis">  456.47  456.85</time>
   <time name="orth">   19.90   19.92</time>
   <time name="total">  557.80  558.22</time>
   <energy>
    <i name="e_fr_energy">   -828.30272876 </i>
    <i name="e_wo_entrp">   -828.19801991 </i>
    <i name="e_0_energy">   -828.25037433 </i>
   </energy>
  </scstep>
  <scstep>
   <time name="diag">   66.78   66.84</time>
   <time name="diis">  419.94  420.18</time>
   <time name="orth">   19.89   19.91</time>
   <time name="total">  521.17  521.50</time>
   <energy>
    <i name="e_fr_energy">   -828.30271688 </i>
    <i name="e_wo_entrp">   -828.19792590 </i>
    <i name="e_0_energy">   -828.25032139 </i>
   </energy>
  </scstep>
  <scstep>
   <time name="diag">   66.82   66.86</time>
   <time name="diis">  476.00  476.19</time>
   <time name="orth">   19.88   19.91</time>
   <time name="total">  577.31  577.57</time>
   <energy>
    <i name="e_fr_energy">   -828.30270306 </i>
    <i name="e_wo_entrp">   -828.19789248 </i>
    <i name="e_0_energy">   -828.25029777 </i>
   </energy>
  </scstep>
  <scstep>
   <time name="diag">   66.77   66.81</time>
   <time name="diis">  410.25  410.49</time>
   <time name="orth">   19.89   19.89</time>
   <time name="total">  511.52  511.81</time>
   <energy>
    <i name="e_fr_energy">   -828.30270301 </i>
    <i name="e_wo_entrp">   -828.19805869 </i>
    <i name="e_0_energy">   -828.25038085 </i>
   </energy>
  </scstep>
  <scstep>
   <time name="diag">   66.78   66.80</time>
