membrane                                
           1
    26.266500    0.000000    0.000000
   -13.132880   22.749747    0.000000
     0.000000    0.000000   20.201799
   C    Al   S    Cl   Cu
  54   1  54   4  27
Direct configuration=     1
   0.02985246  0.30215457  0.50000002
   0.02982867  0.06203322  0.50000002
   0.26995370  0.30214841  0.50000002
   0.06091427  0.03096386  0.50000002
   0.30103537  0.27107730  0.50000002
   0.30101632  0.03095859  0.50000002
   0.36318715  0.30215501  0.50000002
   0.36316504  0.06203322  0.50000002
   0.60328849  0.30214753  0.50000002
   0.39424862  0.03096210  0.50000002
   0.63436826  0.27107642  0.50000002
   0.63434839  0.03095683  0.50000002
   0.69652178  0.30215457  0.50000002
   0.69649902  0.06203146  0.50000002
   0.93661959  0.30214841  0.50000002
   0.72758311  0.03096518  0.50000002
   0.96769990  0.27107686  0.50000002
   0.96768058  0.03095683  0.50000002
   0.02985094  0.63548662  0.50000002
   0.02982955  0.39536703  0.50000002
   0.26995278  0.63548091  0.50000002
   0.06091254  0.36429856  0.50000002
   0.30103621  0.60441331  0.50000002
   0.30101454  0.36429240  0.50000002
   0.36318645  0.63548794  0.50000002
   0.36316592  0.39536703  0.50000002
   0.60328757  0.63548003  0.50000002
   0.39424689  0.36429680  0.50000002
   0.63436909  0.60441243  0.50000002
   0.63434661  0.36429064  0.50000002
   0.69652146  0.63548750  0.50000002
   0.69649989  0.39536527  0.50000002
   0.93661893  0.63547915  0.50000002
   0.72758100  0.36429987  0.50000002
   0.96769980  0.60441024  0.50000002
   0.96767917  0.36429064  0.50000002
   0.02985096  0.96882176  0.50000002
   0.02982841  0.72869909  0.50000002
   0.26995289  0.96881473  0.50000002
   0.06091242  0.69762885  0.50000002
   0.30103555  0.93774405  0.50000002
   0.30101744  0.69762797  0.50000002
   0.36318603  0.96882220  0.50000002
   0.36316456  0.72869865  0.50000002
   0.60328807  0.96881385  0.50000002
   0.39424760  0.69762797  0.50000002
   0.63436806  0.93774317  0.50000002
   0.63434973  0.69762666  0.50000002
   0.69652066  0.96882176  0.50000002
   0.69649875  0.72869733  0.50000002
   0.93661879  0.96881473  0.50000002
   0.72758208  0.69763105  0.50000002
   0.96769970  0.93774361  0.50000002
   0.96768163  0.69762534  0.50000002
   0.65581611  0.33448064  0.75001339
   0.06787467  0.13812813  0.50000002
   0.19384621  0.26408689  0.50000002
   0.13701868  0.06901923  0.50000002
   0.26297787  0.19497843  0.50000002
   0.26296372  0.06901659  0.50000002
   0.40124843  0.26411283  0.50000002
   0.40120838  0.13812813  0.50000002
   0.52718536  0.26408865  0.50000002
   0.47035015  0.06901703  0.50000002
   0.59631457  0.19497755  0.50000002
   0.59630057  0.06901527  0.50000002
   0.73458497  0.26411239  0.50000002
   0.73454231  0.13812857  0.50000002
   0.86051565  0.26408865  0.50000002
   0.80368550  0.06901879  0.50000002
   0.92964469  0.19497799  0.50000002
   0.92963162  0.06901527  0.50000002
   0.06791619  0.59744400  0.50000002
   0.06787327  0.47146194  0.50000002
   0.19384798  0.59742554  0.50000002
   0.13702038  0.40235392  0.50000002
   0.26297521  0.52831049  0.50000002
   0.26296366  0.40234777  0.50000002
   0.40124843  0.59744488  0.50000002
   0.40120720  0.47146238  0.50000002
   0.52718714  0.59742730  0.50000002
   0.47035185  0.40235173  0.50000002
   0.59631190  0.52830961  0.50000002
   0.59630013  0.40234645  0.50000002
   0.73458497  0.59744444  0.50000002
   0.73454113  0.47146282  0.50000002
   0.86051758  0.59742686  0.50000002
   0.80368720  0.40235348  0.50000002
   0.92964333  0.52830961  0.50000002
   0.92963134  0.40234601  0.50000002
   0.06791641  0.93077650  0.50000002
   0.06787513  0.80479620  0.50000002
   0.19384618  0.93075628  0.50000002
   0.13701804  0.73568510  0.50000002
   0.26297675  0.86164562  0.50000002
   0.26296362  0.73568202  0.50000002
   0.40124887  0.93077782  0.50000002
   0.40120884  0.80479620  0.50000002
   0.52718594  0.93075848  0.50000002
   0.47034973  0.73568334  0.50000002
   0.59631306  0.86164474  0.50000002
   0.59630009  0.73568071  0.50000002
   0.73458541  0.93077738  0.50000002
   0.73454277  0.80479664  0.50000002
   0.86051622  0.93075848  0.50000002
   0.80368529  0.73568554  0.50000002
   0.92964356  0.86164518  0.50000002
   0.92963152  0.73568071  0.50000002
   0.06791597  0.26411151  0.50000002
   0.72222789  0.31985894  0.70665685
   0.67354180  0.41890400  0.71410570
   0.56939409  0.26572999  0.72240446
   0.65804663  0.33360635  0.85640738
   0.49876995  0.33322173  0.50000002
   0.99876467  0.16657372  0.50000002
   0.83207394  0.16654691  0.50000002
   0.83210083  0.33322217  0.50000002
   0.33209655  0.49990666  0.50000002
   0.16540818  0.49988380  0.50000002
   0.16543317  0.66655906  0.50000002
   0.66543347  0.49990622  0.50000002
   0.49874265  0.49988380  0.50000002
   0.49877008  0.66655862  0.50000002
   0.99876467  0.49990578  0.50000002
   0.83207331  0.49988380  0.50000002
   0.83210096  0.66655906  0.50000002
   0.33209753  0.83323915  0.50000002
   0.16540921  0.83321410  0.50000002
   0.16543339  0.99989155  0.50000002
   0.66543407  0.83323871  0.50000002
   0.49874330  0.83321410  0.50000002
   0.49876992  0.99989112  0.50000002
   0.99876413  0.83323827  0.50000002
   0.83207402  0.83321498  0.50000002
   0.83210080  0.99989155  0.50000002
   0.33209808  0.16657460  0.50000002
   0.16540875  0.16654603  0.50000002
   0.16543303  0.33322217  0.50000002
   0.66543439  0.16657372  0.50000002
   0.49874322  0.16654603  0.50000002
Direct configuration=     2
   0.02981439  0.30213352  0.50000097
   0.02981938  0.06199881  0.50000008
   0.26996033  0.30212152  0.50000113
   0.06088908  0.03095596  0.49999964
   0.30101905  0.27108558  0.50000182
   0.30100052  0.03094063  0.50000191
   0.36319372  0.30209766  0.49999378
   0.36318393  0.06209547  0.49999371
   0.60292214  0.30195330  0.50003983
   0.39430595  0.03097831  0.49999589
   0.63421643  0.27075282  0.50004422
   0.63431824  0.03097087  0.49999548
   0.69669329  0.30197656  0.50004751
   0.69653859  0.06207895  0.49999506
   0.93656550  0.30209968  0.49999493
   0.72757196  0.03094263  0.50000159
   0.96772612  0.27109187  0.50000160
   0.96769960  0.03095125  0.49999983
   0.02985589  0.63550111  0.50000159
   0.02984064  0.39535146  0.50000158
   0.26998078  0.63549650  0.49999980
   0.06090389  0.36431813  0.50000095
   0.30104615  0.60443948  0.50000006
   0.30105251  0.36431673  0.50000109
   0.36316799  0.63549399  0.49999967
   0.36314401  0.39535738  0.50000169
   0.60329411  0.63550414  0.50000188
   0.39431481  0.36435377  0.49999474
   0.63431858  0.60434233  0.49999450
   0.63418838  0.36448622  0.50004955
   0.69656904  0.63547075  0.49999455
   0.69668038  0.39572380  0.50004201
   0.93656475  0.63547040  0.49999419
   0.72792656  0.36446661  0.50004922
   0.96769663  0.60436190  0.49999588
   0.96768096  0.36433794  0.49999545
   0.02983424  0.96882917  0.50000003
   0.02980224  0.72868213  0.50000094
   0.26996201  0.96884311  0.50000117
   0.06090185  0.69760445  0.50000077
   0.30106158  0.93775674  0.50000101
   0.30103127  0.69761002  0.49999999
   0.36316530  0.96880378  0.50000178
   0.36315600  0.72867186  0.49999977
   0.60329660  0.96880109  0.50000146
   0.39422019  0.69762224  0.50000005
   0.63435770  0.93776253  0.50000085
   0.63433213  0.69759318  0.50000116
   0.69653227  0.96884698  0.50000082
   0.69652276  0.72869230  0.50000115
   0.93664705  0.96882452  0.50000003
   0.72757970  0.69764495  0.50000198
   0.96771523  0.93777323  0.49999972
   0.96770721  0.69763935  0.50000152
   0.65587532  0.33454035  0.75024025
   0.06787841  0.13813554  0.49999834
   0.19386506  0.26410236  0.49999947
   0.13701988  0.06901895  0.49999936
   0.26298363  0.19499457  0.49999672
   0.26297314  0.06900394  0.49999642
   0.40123619  0.26415275  0.49999160
   0.40120085  0.13807717  0.49999051
   0.52749605  0.26424799  0.50000561
   0.47030581  0.06901174  0.49999035
   0.59645821  0.19527062  0.50000137
   0.59634026  0.06900973  0.49999262
   0.73442242  0.26426824  0.49999892
   0.73450512  0.13808786  0.49999230
   0.86056056  0.26413440  0.49999174
   0.80367963  0.06901316  0.49999724
   0.92965173  0.19498981  0.49999721
   0.92963209  0.06901377  0.49999936
   0.06790695  0.59744848  0.49999734
   0.06787378  0.47145588  0.49999724
   0.19384918  0.59742953  0.49999943
   0.13700787  0.40234570  0.49999944
   0.26297620  0.52831162  0.49999837
   0.26297094  0.40233729  0.49999952
   0.40124435  0.59743982  0.49999939
   0.40120177  0.47145255  0.49999691
   0.52719794  0.59743788  0.49999665
   0.47030260  0.40230818  0.49999169
   0.59635948  0.52836938  0.49999020
   0.59645610  0.40219018  0.49999953
   0.73453197  0.59744969  0.49999025
   0.73438435  0.47114932  0.50000405
   0.86056236  0.59743434  0.49999258
   0.80338249  0.40220037  0.49999862
   0.92964609  0.52835486  0.49999208
   0.92963318  0.40230496  0.49999183
   0.06791001  0.93077328  0.49999829
   0.06787311  0.80478741  0.49999955
   0.19386394  0.93076761  0.49999940
   0.13700652  0.73568089  0.49999948
   0.26298381  0.86166126  0.49999948
   0.26296531  0.73568275  0.49999846
   0.40123474  0.93077826  0.49999699
   0.40121144  0.80479926  0.49999936
   0.52719366  0.93076340  0.49999706
   0.47035838  0.73568689  0.49999834
   0.59631960  0.86165547  0.49999948
   0.59630982  0.73567482  0.49999950
   0.73457083  0.93077868  0.49999949
   0.73453537  0.80478174  0.49999952
   0.86051189  0.93075979  0.49999838
   0.80367444  0.73568241  0.49999667
   0.92964283  0.86164518  0.49999939
   0.92964009  0.73567655  0.49999677
   0.06790621  0.26411536  0.49999942
   0.72244843  0.31958145  0.70633958
   0.67340556  0.41923680  0.71380597
   0.56905401  0.26549221  0.72183764
   0.65825184  0.33373040  0.85658613
   0.49878389  0.33321942  0.50008748
   0.99875748  0.16656657  0.50000282
   0.83207426  0.16655337  0.50001487
   0.83207487  0.33322006  0.50009333
   0.33209409  0.49990099  0.50000298
   0.16540791  0.49988696  0.50000277
   0.16542770  0.66655576  0.50000274
   0.66542878  0.49987636  0.50011804
   0.49874886  0.49988320  0.50001707
   0.49876434  0.66655502  0.50000310
   0.99875412  0.49989659  0.50001400
   0.83205428  0.49986917  0.50007409
   0.83209256  0.66655126  0.50001702
   0.33209499  0.83323472  0.50000297
   0.16541000  0.83321711  0.50000230
   0.16543169  0.99989343  0.50000324
   0.66542838  0.83323350  0.50000225
   0.49874439  0.83321917  0.50000288
   0.49876696  0.99989618  0.50001473
   0.99875661  0.83323043  0.50000299
   0.83207724  0.83321644  0.50000307
   0.83209781  0.99989363  0.50000277
   0.33210154  0.16657132  0.50001883
   0.16541256  0.16654897  0.50000309
   0.16542870  0.33322205  0.50000222
   0.66543297  0.16658647  0.50007264
   0.49876135  0.16657226  0.50010506
Direct configuration=     3
   0.02983017  0.30214224  0.50000057
   0.02982323  0.06201306  0.50000006
   0.26995758  0.30213266  0.50000067
   0.06089951  0.03095924  0.49999980
   0.30102581  0.27108215  0.50000107
   0.30100706  0.03094807  0.50000112
   0.36319100  0.30212142  0.49999636
   0.36317611  0.06206968  0.49999632
   0.60307391  0.30203376  0.50002333
   0.39428220  0.03097160  0.49999760
   0.63427933  0.27088688  0.50002591
   0.63433073  0.03096506  0.49999736
   0.69662224  0.30205030  0.50002783
   0.69652220  0.06205928  0.49999711
   0.93658791  0.30211987  0.49999703
   0.72757658  0.03095197  0.50000094
   0.96771526  0.27108565  0.50000095
   0.96769172  0.03095356  0.49999991
   0.02985384  0.63549511  0.50000094
   0.02983605  0.39535791  0.50000093
   0.26996918  0.63549004  0.49999989
   0.06090748  0.36431002  0.50000056
   0.30104203  0.60442864  0.50000004
   0.30103678  0.36430665  0.50000064
   0.36317564  0.63549149  0.49999981
   0.36315309  0.39536138  0.50000099
   0.60329140  0.63549415  0.50000111
   0.39428668  0.36433017  0.49999693
   0.63433951  0.60437137  0.49999678
   0.63425393  0.36440520  0.50002903
   0.69654933  0.63547769  0.49999681
   0.69660561  0.39557528  0.50002461
   0.93658720  0.63547403  0.49999660
   0.72778340  0.36439753  0.50002884
   0.96769795  0.60438192  0.49999759
   0.96768022  0.36431834  0.49999734
   0.02984117  0.96882610  0.50000002
   0.02981308  0.72868916  0.50000056
   0.26995823  0.96883135  0.50000069
   0.06090623  0.69761456  0.50000046
   0.30105080  0.93775148  0.50000060
   0.30102554  0.69761746  0.50000000
   0.36317389  0.96881141  0.50000105
   0.36315955  0.72868296  0.49999987
   0.60329307  0.96880637  0.50000086
   0.39423155  0.69762462  0.50000004
   0.63436199  0.93775451  0.50000050
   0.63433942  0.69760705  0.50000068
   0.69652746  0.96883653  0.50000049
   0.69651282  0.72869439  0.50000068
   0.93663534  0.96882046  0.50000003
   0.72758068  0.69763919  0.50000117
   0.96770879  0.93776096  0.49999984
   0.96769661  0.69763355  0.50000090
   0.65585079  0.33451561  0.75014627
   0.06787686  0.13813247  0.49999903
   0.19385725  0.26409595  0.49999970
   0.13701938  0.06901907  0.49999963
   0.26298125  0.19498788  0.49999809
   0.26296924  0.06900918  0.49999791
   0.40124126  0.26413621  0.49999509
   0.40120397  0.13809828  0.49999445
   0.52736734  0.26418198  0.50000329
   0.47032418  0.06901393  0.49999435
   0.59639871  0.19514921  0.50000081
   0.59632382  0.06901203  0.49999568
   0.73448976  0.26420367  0.49999937
   0.73452053  0.13810472  0.49999550
   0.86054195  0.26411545  0.49999517
   0.80368206  0.06901549  0.49999839
   0.92964881  0.19498491  0.49999837
   0.92963190  0.06901439  0.49999963
   0.06791078  0.59744663  0.49999845
   0.06787357  0.47145839  0.49999839
   0.19384868  0.59742788  0.49999967
   0.13701305  0.40234911  0.49999968
   0.26297579  0.52831115  0.49999905
   0.26296792  0.40234163  0.49999972
   0.40124604  0.59744192  0.49999965
   0.40120402  0.47145662  0.49999820
   0.52719347  0.59743349  0.49999804
   0.47032300  0.40232622  0.49999514
   0.59633977  0.52834462  0.49999427
   0.59639149  0.40225491  0.49999973
   0.73455393  0.59744751  0.49999430
   0.73444930  0.47127919  0.50000238
   0.86054381  0.59743124  0.49999566
   0.80350872  0.40226380  0.49999920
   0.92964495  0.52833611  0.49999537
   0.92963242  0.40232196  0.49999522
   0.06791266  0.93077462  0.49999901
   0.06787395  0.80479105  0.49999974
   0.19385658  0.93076292  0.49999966
   0.13701129  0.73568263  0.49999970
   0.26298088  0.86165478  0.49999970
   0.26296461  0.73568245  0.49999910
   0.40124060  0.93077808  0.49999824
   0.40121036  0.80479799  0.49999963
   0.52719046  0.93076136  0.49999828
   0.47035479  0.73568542  0.49999903
   0.59631689  0.86165103  0.49999970
   0.59630579  0.73567726  0.49999971
   0.73457687  0.93077814  0.49999971
   0.73453844  0.80478791  0.49999973
   0.86051368  0.93075925  0.49999906
   0.80367894  0.73568371  0.49999806
   0.92964313  0.86164518  0.49999965
   0.92963654  0.73567827  0.49999812
   0.06791025  0.26411376  0.49999967
   0.72235706  0.31969641  0.70647101
   0.67346200  0.41909893  0.71393014
   0.56919489  0.26559072  0.72207245
   0.65816683  0.33367901  0.85651208
   0.49877811  0.33322037  0.50005125
   0.99876046  0.16656953  0.50000166
   0.83207413  0.16655069  0.50000872
   0.83208562  0.33322093  0.50005467
   0.33209511  0.49990334  0.50000175
   0.16540802  0.49988565  0.50000163
   0.16542996  0.66655713  0.50000161
   0.66543072  0.49988873  0.50006915
   0.49874629  0.49988345  0.50001001
   0.49876672  0.66655651  0.50000182
   0.99875849  0.49990040  0.50000821
   0.83206216  0.49987523  0.50004341
   0.83209604  0.66655449  0.50000997
   0.33209604  0.83323656  0.50000175
   0.16540967  0.83321586  0.50000135
   0.16543239  0.99989265  0.50000191
   0.66543074  0.83323566  0.50000132
   0.49874394  0.83321707  0.50000169
   0.49876819  0.99989408  0.50000864
   0.99875972  0.83323368  0.50000176
   0.83207590  0.83321584  0.50000180
   0.83209905  0.99989277  0.50000163
   0.33210010  0.16657268  0.50001104
   0.16541098  0.16654775  0.50000182
   0.16543050  0.33322210  0.50000131
   0.66543356  0.16658119  0.50004255
   0.49875384  0.16656139  0.50006154
Direct configuration=     4
   0.02984032  0.30216296  0.50000193
   0.02982780  0.06202003  0.50000002
   0.26997119  0.30215604  0.50000229
   0.06090337  0.03095286  0.49999943
   0.30104691  0.27107657  0.50000241
   0.30103447  0.03097372  0.50000253
   0.36320577  0.30216525  0.49998895
   0.36318695  0.06204614  0.49998904
   0.60320050  0.30210814  0.50007896
   0.39425968  0.03098115  0.49999242
   0.63432854  0.27099718  0.50008546
   0.63436415  0.03097389  0.49999181
   0.69657088  0.30211466  0.50009213
   0.69649541  0.06203965  0.49999116
   0.93661376  0.30216034  0.49999098
   0.72758158  0.03097422  0.50000217
   0.96768622  0.27107920  0.50000217
   0.96769334  0.03095108  0.49999975
   0.02983678  0.63547539  0.50000229
   0.02982353  0.39536540  0.50000220
   0.26996681  0.63548891  0.49999969
   0.06089787  0.36428902  0.50000189
   0.30103941  0.60442584  0.49999998
   0.30102932  0.36428299  0.50000218
   0.36317578  0.63549441  0.49999946
   0.36318600  0.39536872  0.50000232
   0.60328891  0.63546388  0.50000258
   0.39426073  0.36428557  0.49999046
   0.63437642  0.60439913  0.49999024
   0.63430984  0.36433957  0.50009387
   0.69650891  0.63546456  0.49999035
   0.69655494  0.39545890  0.50008333
   0.93661312  0.63546440  0.49998977
   0.72766952  0.36434356  0.50009433
   0.96768093  0.60440507  0.49999238
   0.96766663  0.36427767  0.49999182
   0.02984406  0.96882858  0.49999991
   0.02982282  0.72868169  0.50000190
   0.26997015  0.96883053  0.50000234
   0.06089703  0.69761547  0.50000161
   0.30104506  0.93776317  0.50000203
   0.30102896  0.69762019  0.49999987
   0.36319773  0.96883611  0.50000262
   0.36316074  0.72868756  0.49999964
   0.60329215  0.96883055  0.50000199
   0.39423597  0.69762082  0.49999996
   0.63437398  0.93776329  0.50000171
   0.63436140  0.69761510  0.50000229
   0.69651315  0.96883259  0.50000171
   0.69650004  0.72868243  0.50000230
   0.93663520  0.96882526  0.49999994
   0.72758459  0.69761514  0.50000276
   0.96770741  0.93775814  0.49999954
   0.96767465  0.69761225  0.50000192
   0.65591129  0.33457254  0.75029051
   0.06787384  0.13812416  0.49999676
   0.19387871  0.26411004  0.49999903
   0.13700988  0.06901411  0.49999893
   0.26297792  0.19499223  0.49999383
   0.26296927  0.06899965  0.49999319
   0.40124618  0.26415056  0.49998404
   0.40121652  0.13809042  0.49998207
   0.52745138  0.26422692  0.50001494
   0.47031904  0.06902737  0.49998189
   0.59643913  0.19523229  0.50000621
   0.59634549  0.06902228  0.49998603
   0.73443934  0.26424376  0.50000159
   0.73450318  0.13809939  0.49998535
   0.86055029  0.26414143  0.49998447
   0.80367999  0.06900912  0.49999477
   0.92965549  0.19499004  0.49999470
   0.92963904  0.06900776  0.49999890
   0.06790644  0.59744825  0.49999497
   0.06787906  0.47145688  0.49999473
   0.19386065  0.59743798  0.49999904
   0.13699566  0.40234130  0.49999894
   0.26298104  0.52832311  0.49999682
   0.26298171  0.40233151  0.49999913
   0.40123435  0.59744153  0.49999900
   0.40120014  0.47145558  0.49999415
   0.52719598  0.59744389  0.49999363
   0.47031763  0.40230724  0.49998428
   0.59636135  0.52835621  0.49998166
   0.59643657  0.40221294  0.50000350
   0.73452519  0.59743006  0.49998173
   0.73440971  0.47119773  0.50001172
   0.86055133  0.59742261  0.49998590
   0.80342345  0.40221975  0.50000104
   0.92963086  0.52834459  0.49998503
   0.92962013  0.40229965  0.49998470
   0.06789928  0.93077556  0.49999666
   0.06786577  0.80477508  0.49999919
   0.19387654  0.93077872  0.49999891
   0.13699423  0.73567322  0.49999903
   0.26299203  0.86167525  0.49999902
   0.26297332  0.73567528  0.49999700
   0.40122716  0.93076979  0.49999427
   0.40120724  0.80478955  0.49999893
   0.52719342  0.93076204  0.49999441
   0.47034829  0.73568223  0.49999677
   0.59632461  0.86166976  0.49999905
   0.59631517  0.73566452  0.49999907
   0.73456129  0.93078285  0.49999906
   0.73453231  0.80476985  0.49999910
   0.86052431  0.93076791  0.49999684
   0.80367834  0.73568796  0.49999370
   0.92964741  0.86165599  0.49999899
   0.92964503  0.73568025  0.49999387
   0.06789224  0.26411634  0.49999892
   0.72252724  0.31936244  0.70612048
   0.67325703  0.41939777  0.71358200
   0.56890642  0.26540467  0.72136217
   0.65844150  0.33384562  0.85669864
   0.49879075  0.33321760  0.50016842
   0.99875273  0.16656151  0.50000556
   0.83207314  0.16656010  0.50002906
   0.83205856  0.33321819  0.50017907
   0.33209095  0.49989595  0.50000585
   0.16540873  0.49988940  0.50000547
   0.16542415  0.66655429  0.50000538
   0.66542469  0.49985695  0.50022619
   0.49875485  0.49988176  0.50003341
   0.49876037  0.66655328  0.50000610
   0.99874307  0.49988794  0.50002738
   0.83204322  0.49986175  0.50014246
   0.83208454  0.66654244  0.50003323
   0.33209185  0.83323029  0.50000586
   0.16541087  0.83321982  0.50000467
   0.16542956  0.99989369  0.50000640
   0.66542374  0.83322946  0.50000458
   0.49874596  0.83322263  0.50000565
   0.49876615  0.99990251  0.50002883
   0.99875158  0.83322479  0.50000588
   0.83207967  0.83321878  0.50000605
   0.83209461  0.99989373  0.50000544
   0.33210629  0.16657003  0.50003672
   0.16541474  0.16655185  0.50000608
   0.16542520  0.33322191  0.50000452
   0.66543132  0.16659286  0.50013986
   0.49877166  0.16658897  0.50020167
Direct configuration=     5
   0.02984398  0.30217041  0.50000242
   0.02982945  0.06202253  0.50000001
   0.26997609  0.30216445  0.50000287
   0.06090476  0.03095056  0.49999930
   0.30105450  0.27107456  0.50000289
   0.30104434  0.03098295  0.50000304
   0.36321108  0.30218102  0.49998628
   0.36319086  0.06203766  0.49998642
   0.60324606  0.30213491  0.50009898
   0.39425157  0.03098459  0.49999055
   0.63434624  0.27103687  0.50010689
   0.63437618  0.03097707  0.49998982
   0.69655240  0.30213782  0.50011526
   0.69648577  0.06203258  0.49998902
   0.93662306  0.30217491  0.49998880
   0.72758338  0.03098223  0.50000261
   0.96767577  0.27107687  0.50000261
   0.96769392  0.03095019  0.49999969
   0.02983063  0.63546829  0.50000278
   0.02981902  0.39536810  0.50000266
   0.26996595  0.63548851  0.49999962
   0.06089442  0.36428146  0.50000237
   0.30103846  0.60442484  0.49999996
   0.30102663  0.36427448  0.50000273
   0.36317583  0.63549546  0.49999934
   0.36319784  0.39537136  0.50000280
   0.60328802  0.63545299  0.50000311
   0.39425140  0.36426952  0.49998814
   0.63438970  0.60440912  0.49998788
   0.63432996  0.36431595  0.50011720
   0.69649436  0.63545984  0.49998802
   0.69653671  0.39541703  0.50010447
   0.93662245  0.63546093  0.49998732
   0.72762854  0.36432414  0.50011789
   0.96767480  0.60441340  0.49999051
   0.96766174  0.36426303  0.49998983
   0.02984510  0.96882947  0.49999987
   0.02982632  0.72867900  0.50000238
   0.26997444  0.96883024  0.50000293
   0.06089371  0.69761580  0.50000202
   0.30104300  0.93776737  0.50000254
   0.30103020  0.69762117  0.49999983
   0.36320631  0.96884500  0.50000318
   0.36316117  0.72868922  0.49999956
   0.60329182  0.96883925  0.50000239
   0.39423756  0.69761945  0.49999993
   0.63437829  0.93776645  0.50000215
   0.63436931  0.69761799  0.50000286
   0.69650800  0.96883117  0.50000214
   0.69649544  0.72867812  0.50000288
   0.93663515  0.96882699  0.49999991
   0.72758600  0.69760648  0.50000333
   0.96770691  0.93775713  0.49999944
   0.96766675  0.69760459  0.50000229
   0.65593307  0.33459303  0.75034241
   0.06787275  0.13812116  0.49999594
   0.19388643  0.26411511  0.49999879
   0.13700646  0.06901233  0.49999867
   0.26297673  0.19499380  0.49999229
   0.26296929  0.06899622  0.49999149
   0.40124795  0.26415572  0.49998007
   0.40122103  0.13808759  0.49997762
   0.52748163  0.26424310  0.50001913
   0.47031719  0.06903220  0.49997740
   0.59645367  0.19526218  0.50000815
   0.59635329  0.06902597  0.49998256
   0.73442120  0.26425818  0.50000239
   0.73449694  0.13809746  0.49998170
   0.86055330  0.26415079  0.49998062
   0.80367924  0.06900683  0.49999347
   0.92965789  0.19499188  0.49999338
   0.92964160  0.06900538  0.49999864
   0.06790489  0.59744883  0.49999372
   0.06788104  0.47145634  0.49999341
   0.19386496  0.59744162  0.49999881
   0.13698941  0.40233849  0.49999867
   0.26298293  0.52832741  0.49999602
   0.26298667  0.40232787  0.49999891
   0.40123015  0.59744139  0.49999877
   0.40119874  0.47145521  0.49999270
   0.52719688  0.59744763  0.49999205
   0.47031569  0.40230041  0.49998037
   0.59636912  0.52836039  0.49997713
   0.59645279  0.40219784  0.50000485
   0.73451485  0.59742378  0.49997721
   0.73439547  0.47116841  0.50001508
   0.86055404  0.59741951  0.49998239
   0.80339276  0.40220390  0.50000170
   0.92962579  0.52834765  0.49998131
   0.92961572  0.40229162  0.49998092
   0.06789446  0.93077590  0.49999582
   0.06786282  0.80476934  0.49999899
   0.19388373  0.93078440  0.49999864
   0.13698809  0.73566983  0.49999879
   0.26299605  0.86168262  0.49999878
   0.26297646  0.73567270  0.49999624
   0.40122233  0.93076681  0.49999284
   0.40120612  0.80478651  0.49999867
   0.52719448  0.93076229  0.49999301
   0.47034595  0.73568108  0.49999595
   0.59632739  0.86167650  0.49999882
   0.59631855  0.73565994  0.49999884
   0.73455569  0.93078454  0.49999883
   0.73453011  0.80476335  0.49999888
   0.86052813  0.93077103  0.49999604
   0.80367812  0.73568949  0.49999214
   0.92964895  0.86165987  0.49999875
   0.92964809  0.73568096  0.49999234
   0.06788576  0.26411726  0.49999865
   0.72258848  0.31924226  0.70599434
   0.67318327  0.41950530  0.71345672
   0.56880261  0.26533772  0.72110657
   0.65854034  0.33390557  0.85676577
   0.49879530  0.33321660  0.50021058
   0.99874995  0.16655863  0.50000696
   0.83207279  0.16656348  0.50003638
   0.83204882  0.33321721  0.50022384
   0.33208946  0.49989329  0.50000733
   0.16540899  0.49989075  0.50000685
   0.16542206  0.66655327  0.50000674
   0.66542252  0.49984551  0.50028270
   0.49875793  0.49988115  0.50004183
   0.49875808  0.66655212  0.50000764
   0.99873751  0.49988346  0.50003428
   0.83203641  0.49985690  0.50017810
   0.83208040  0.66653810  0.50004160
   0.33209033  0.83322803  0.50000734
   0.16541130  0.83322124  0.50000586
   0.16542854  0.99989406  0.50000802
   0.66542122  0.83322722  0.50000575
   0.49874668  0.83322463  0.50000707
   0.49876542  0.99990555  0.50003610
   0.99874865  0.83322160  0.50000736
   0.83208103  0.83321984  0.50000758
   0.83209302  0.99989408  0.50000681
   0.33210852  0.16656908  0.50004596
   0.16541610  0.16655333  0.50000762
   0.16542330  0.33322184  0.50000568
   0.66543051  0.16659706  0.50017488
   0.49877808  0.16659890  0.50025209
Direct configuration=     6
   0.02976331  0.30210387  0.50000414
   0.02983727  0.06201581  0.49999961
   0.26999176  0.30209998  0.50000493
   0.06090776  0.03097155  0.49999913
   0.30103882  0.27110782  0.50000151
   0.30102557  0.03094383  0.50000171
   0.36316140  0.30207045  0.49997970
   0.36316972  0.06208760  0.49998057
   0.60328979  0.30213612  0.50017998
   0.39430578  0.03095943  0.49998524
   0.63438997  0.27110642  0.50018729
   0.63430871  0.03095707  0.49998444
   0.69649502  0.30215484  0.50020091
   0.69656304  0.06207970  0.49998352
   0.93656550  0.30207821  0.49998343
   0.72757011  0.03094992  0.50000167
   0.96772590  0.27110810  0.50000158
   0.96770360  0.03096466  0.49999966
   0.02983191  0.63549208  0.50000220
   0.02982772  0.39533959  0.50000185
   0.26996876  0.63549113  0.49999955
   0.06088742  0.36434261  0.50000407
   0.30103839  0.60442811  0.49999954
   0.30111547  0.36434633  0.50000468
   0.36317360  0.63548516  0.49999915
   0.36314966  0.39533846  0.50000180
   0.60331068  0.63551032  0.50000203
   0.39431448  0.36437968  0.49998188
   0.63430074  0.60435446  0.49998221
   0.63438478  0.36431650  0.50019952
   0.69658573  0.63549932  0.49998249
   0.69649534  0.39535817  0.50018949
   0.93656603  0.63549443  0.49998145
   0.72757838  0.36429534  0.50020278
   0.96771934  0.60436599  0.49998502
   0.96771647  0.36437022  0.49998467
   0.02983450  0.96881461  0.49999935
   0.02976648  0.72866086  0.50000406
   0.26999377  0.96888873  0.50000496
   0.06088395  0.69756780  0.50000366
   0.30110406  0.93778887  0.50000442
   0.30103010  0.69762039  0.49999942
   0.36316303  0.96882144  0.50000278
   0.36317441  0.72868598  0.49999944
   0.60330578  0.96881432  0.50000145
   0.39424118  0.69763553  0.49999946
   0.63433733  0.93778484  0.50000372
   0.63431971  0.69754383  0.50000481
   0.69654356  0.96888441  0.50000380
   0.69654508  0.72866147  0.50000490
   0.93663235  0.96881347  0.49999949
   0.72756732  0.69762541  0.50000239
   0.96770435  0.93776302  0.49999929
   0.96771483  0.69763033  0.50000081
   0.65596547  0.33461365  0.75013937
   0.06787481  0.13812241  0.49999282
   0.19388912  0.26412219  0.49999819
   0.13701028  0.06901183  0.49999833
   0.26298955  0.19500098  0.49998726
   0.26298166  0.06900244  0.49998566
   0.40127047  0.26416169  0.49996694
   0.40124824  0.13810632  0.49996336
   0.52747744  0.26424880  0.50004221
   0.47033410  0.06906079  0.49996330
   0.59644780  0.19525796  0.50002309
   0.59636353  0.06904973  0.49997123
   0.73442516  0.26424822  0.50001308
   0.73449040  0.13811436  0.49996954
   0.86053623  0.26416635  0.49996847
   0.80367472  0.06901244  0.49998909
   0.92965021  0.19499927  0.49998887
   0.92964182  0.06900230  0.49999823
   0.06788695  0.59743749  0.49998952
   0.06786957  0.47144763  0.49998889
   0.19386398  0.59744543  0.49999850
   0.13698981  0.40233650  0.49999790
   0.26297992  0.52832406  0.49999294
   0.26298844  0.40232156  0.49999839
   0.40122275  0.59743699  0.49999859