 running on   64 total cores
 distrk:  each k-point on   64 cores,    1 groups
 distr:  one band on   32 cores,    2 groups
 using from now: INCAR     
 vasp.5.4.4.18Apr17-6-g9f103f2a35 (build Apr 28 2017 10:40:22) complex          
  
 POSCAR found type information on POSCAR  C  Al S  Cl Cu
 POSCAR found :  5 types and     140 ions
 scaLAPACK will be used

 ----------------------------------------------------------------------------- 
|                                                                             |
|           W    W    AA    RRRRR   N    N  II  N    N   GGGG   !!!           |
|           W    W   A  A   R    R  NN   N  II  NN   N  G    G  !!!           |
|           W    W  A    A  R    R  N N  N  II  N N  N  G       !!!           |
|           W WW W  AAAAAA  RRRRR   N  N N  II  N  N N  G  GGG   !            |
|           WW  WW  A    A  R   R   N   NN  II  N   NN  G    G                |
|           W    W  A    A  R    R  N    N  II  N    N   GGGG   !!!           |
|                                                                             |
|      For optimal performance we recommend to set                            |
|        NCORE= 4 - approx SQRT( number of cores)                             |
|      NCORE specifies how many cores store one orbital (NPAR=cpu/NCORE).     |
|      This setting can  greatly improve the performance of VASP for DFT.     |
|      The default,   NCORE=1            might be grossly inefficient         |
|      on modern multi-core architectures or massively parallel machines.     |
|      Do your own testing !!!!                                               |
|      Unfortunately you need to use the default for GW and RPA calculations. |
|      (for HF NCORE is supported but not extensively tested yet)             |
|                                                                             |
 ----------------------------------------------------------------------------- 


 ----------------------------------------------------------------------------- 
|                                                                             |
|  ADVICE TO THIS USER RUNNING 'VASP/VAMP'   (HEAR YOUR MASTER'S VOICE ...):  |
|                                                                             |
|      You have a (more or less) 'large supercell' and for larger cells       |
|      it might be more efficient to use real space projection opertators     |
|      So try LREAL= Auto  in the INCAR   file.                               |
|      Mind:          For very  accurate calculation you might also keep the  |
|      reciprocal projection scheme          (i.e. LREAL=.FALSE.)             |
|                                                                             |
 ----------------------------------------------------------------------------- 

 LDA part: xc-table for Pade appr. of Perdew
 POSCAR, INCAR and KPOINTS ok, starting setup
 FFT: planning ...
 WAVECAR not read
 entering main loop
       N       E                     dE             d eps       ncg     rms          rms(c)
DAV:   1     0.783155349182E+04    0.78316E+04   -0.27124E+05 12040   0.105E+03
DAV:   2     0.100819835288E+04   -0.68234E+04   -0.58559E+04 14752   0.253E+02
DAV:   3    -0.738335023219E+03   -0.17465E+04   -0.17161E+04 17472   0.144E+02
DAV:   4    -0.903809083793E+03   -0.16547E+03   -0.15937E+03 19288   0.617E+01
DAV:   5    -0.910187763099E+03   -0.63787E+01   -0.59447E+01 20016   0.138E+01    0.126E+02
RMM:   6    -0.863732328685E+03    0.46455E+02   -0.28873E+03 14002   0.115E+02    0.107E+02
RMM:   7    -0.589667560767E+03    0.27406E+03   -0.68013E+02 12163   0.644E+01    0.491E+01
RMM:   8    -0.651447634463E+03   -0.61780E+02   -0.44709E+02 13262   0.416E+01    0.553E+01
RMM:   9    -0.606475212987E+03    0.44972E+02   -0.46549E+01 12930   0.165E+01    0.264E+01
RMM:  10    -0.637643091605E+03   -0.31168E+02   -0.27307E+01 12215   0.125E+01    0.175E+01
RMM:  11    -0.691351957358E+03   -0.53709E+02   -0.31560E+01 12340   0.102E+01    0.148E+01
RMM:  12    -0.732776209243E+03   -0.41424E+02   -0.20599E+01 12563   0.561E+00    0.982E+00
RMM:  13    -0.779192418657E+03   -0.46416E+02   -0.33988E+01 12792   0.746E+00    0.906E+00
RMM:  14    -0.791906563526E+03   -0.12714E+02   -0.74358E+00 12854   0.430E+00    0.997E+00
RMM:  15    -0.800262111908E+03   -0.83555E+01   -0.35906E+00 12489   0.216E+00    0.810E+00
RMM:  16    -0.810026248971E+03   -0.97641E+01   -0.46930E+00 12121   0.333E+00    0.592E+00
RMM:  17    -0.813424830973E+03   -0.33986E+01   -0.17423E+00 13191   0.170E+00    0.407E+00
RMM:  18    -0.819806698521E+03   -0.63819E+01   -0.24014E+00 12530   0.150E+00    0.248E+00
RMM:  19    -0.823026437484E+03   -0.32197E+01   -0.69753E-01 13375   0.109E+00    0.255E+00
RMM:  20    -0.824092399458E+03   -0.10660E+01   -0.26376E-01 13675   0.728E-01    0.145E+00
RMM:  21    -0.824709353317E+03   -0.61695E+00   -0.11521E-01 13602   0.510E-01    0.835E-01
RMM:  22    -0.825334402284E+03   -0.62505E+00   -0.59955E-02 14177   0.321E-01    0.646E-01
RMM:  23    -0.825874558992E+03   -0.54016E+00   -0.27458E-02 13219   0.261E-01    0.478E-01
RMM:  24    -0.826707155055E+03   -0.83260E+00   -0.33766E-02 12847   0.221E-01    0.481E-01
RMM:  25    -0.827146967542E+03   -0.43981E+00   -0.10523E-02 13159   0.163E-01    0.282E-01
RMM:  26    -0.827402633542E+03   -0.25567E+00   -0.45077E-03 13593   0.104E-01    0.228E-01
RMM:  27    -0.827665880589E+03   -0.26325E+00   -0.26326E-03 13104   0.789E-02    0.280E-01
RMM:  28    -0.827947322111E+03   -0.28144E+00   -0.23390E-03 12925   0.779E-02    0.136E-01
RMM:  29    -0.828204114974E+03   -0.25679E+00   -0.35850E-03 12672   0.775E-02    0.115E-01
RMM:  30    -0.828272822716E+03   -0.68708E-01   -0.14510E-03 13087   0.511E-02    0.803E-02
RMM:  31    -0.828291541983E+03   -0.18719E-01   -0.41409E-04 13327   0.264E-02    0.484E-02
RMM:  32    -0.828302779692E+03   -0.11238E-01   -0.35502E-04 12910   0.245E-02    0.562E-02
RMM:  33    -0.828307244446E+03   -0.44648E-02   -0.28236E-04 13251   0.207E-02    0.256E-02
RMM:  34    -0.828308436512E+03   -0.11921E-02   -0.12473E-04 12655   0.129E-02    0.173E-02
RMM:  35    -0.828308846160E+03   -0.40965E-03   -0.35674E-05 11017   0.891E-03    0.132E-02
RMM:  36    -0.828309353876E+03   -0.50772E-03   -0.34991E-05 10475   0.698E-03    0.827E-03
RMM:  37    -0.828309566969E+03   -0.21309E-03   -0.16278E-05  9973   0.573E-03    0.900E-03
RMM:  38    -0.828309908700E+03   -0.34173E-03   -0.88992E-06  9613   0.439E-03    0.530E-03
RMM:  39    -0.828310290134E+03   -0.38143E-03   -0.46311E-06  8692   0.347E-03    0.576E-03
RMM:  40    -0.828310661991E+03   -0.37186E-03   -0.41951E-06  8720   0.318E-03    0.416E-03
RMM:  41    -0.828311011348E+03   -0.34936E-03   -0.25333E-06  7917   0.242E-03    0.241E-03
RMM:  42    -0.828311192126E+03   -0.18078E-03   -0.93837E-07  7487   0.204E-03    0.217E-03
RMM:  43    -0.828311355072E+03   -0.16295E-03   -0.79954E-07  7476   0.172E-03    0.162E-03
RMM:  44    -0.828311554960E+03   -0.19989E-03   -0.16515E-06  7838   0.163E-03    0.128E-03
RMM:  45    -0.828311600732E+03   -0.45772E-04   -0.64282E-07  7437   0.143E-03    0.103E-03
RMM:  46    -0.828311617390E+03   -0.16659E-04   -0.43084E-07  6796   0.100E-03    0.869E-04
RMM:  47    -0.828311633676E+03   -0.16286E-04   -0.39405E-07  6399   0.906E-04    0.730E-04
RMM:  48    -0.828311644444E+03   -0.10768E-04   -0.39050E-07  6623   0.832E-04    0.668E-04
RMM:  49    -0.828311647672E+03   -0.32280E-05   -0.21331E-07  6133   0.761E-04    0.473E-04
RMM:  50    -0.828311649695E+03   -0.20227E-05   -0.13481E-07  5388   0.573E-04    0.337E-04
RMM:  51    -0.828311651466E+03   -0.17712E-05   -0.89407E-08  5225   0.497E-04    0.283E-04
RMM:  52    -0.828311654162E+03   -0.26966E-05   -0.78474E-08  4744   0.416E-04    0.233E-04
RMM:  53    -0.828311656774E+03   -0.26119E-05   -0.69983E-08  4598   0.414E-04    0.241E-04
RMM:  54    -0.828311657900E+03   -0.11261E-05   -0.44380E-08  4005   0.372E-04    0.188E-04
RMM:  55    -0.828311660275E+03   -0.23747E-05   -0.52993E-08  3625   0.330E-04    0.122E-04
RMM:  56    -0.828311662919E+03   -0.26439E-05   -0.67356E-08  3929   0.356E-04    0.108E-04
RMM:  57    -0.828311663796E+03   -0.87664E-06   -0.52883E-08  3832   0.357E-04
   1 F= -.83734038E+03 E0= -.83728803E+03  d E =-.837340E+03  mag=     0.0351
 curvature:   0.00 expect dE= 0.000E+00 dE for cont linesearch  0.000E+00
 trial: gam= 0.00000 g(F)=  0.108E-01 g(S)=  0.000E+00 ort = 0.000E+00 (trialstep = 0.100E+01)
 search vector abs. value=  0.108E-01
 bond charge predicted
       N       E                     dE             d eps       ncg     rms          rms(c)
DAV:   1    -0.828306807262E+03    0.48557E-02   -0.10770E+00 12912   0.123E+00    0.114E+00
RMM:   2    -0.828312063864E+03   -0.52566E-02   -0.60966E-02 14376   0.399E-01    0.283E-01
RMM:   3    -0.828318821251E+03   -0.67574E-02   -0.10526E-02 13801   0.204E-01    0.702E-01
RMM:   4    -0.828311884341E+03    0.69369E-02   -0.35035E-03 13123   0.132E-01    0.225E-01
RMM:   5    -0.828311225254E+03    0.65909E-03   -0.14405E-03 13247   0.736E-02    0.130E-01
RMM:   6    -0.828311222355E+03    0.28994E-05   -0.77653E-04 13647   0.535E-02    0.125E-01
RMM:   7    -0.828310951368E+03    0.27099E-03   -0.31952E-04 13234   0.366E-02    0.637E-02
RMM:   8    -0.828310884540E+03    0.66828E-04   -0.12481E-04 12867   0.237E-02    0.290E-02
RMM:   9    -0.828310877917E+03    0.66231E-05   -0.36250E-05 11669   0.996E-03    0.227E-02
RMM:  10    -0.828310883748E+03   -0.58312E-05   -0.14506E-05 10052   0.694E-03    0.127E-02
RMM:  11    -0.828310915569E+03   -0.31821E-04   -0.13183E-05 11565   0.499E-03    0.553E-03
RMM:  12    -0.828310932849E+03   -0.17280E-04   -0.25079E-06  8031   0.342E-03    0.645E-03
RMM:  13    -0.828310944689E+03   -0.11839E-04   -0.15639E-06  7483   0.310E-03    0.339E-03
RMM:  14    -0.828310967001E+03   -0.22313E-04   -0.82910E-07  7455   0.190E-03    0.189E-03
RMM:  15    -0.828310984357E+03   -0.17356E-04   -0.61555E-07  7366   0.155E-03    0.161E-03
RMM:  16    -0.828311016530E+03   -0.32173E-04   -0.93111E-07  7360   0.126E-03    0.104E-03
RMM:  17    -0.828311026849E+03   -0.10318E-04   -0.32632E-07  6183   0.102E-03    0.869E-04
RMM:  18    -0.828311038764E+03   -0.11915E-04   -0.27390E-07  6117   0.786E-04    0.623E-04
RMM:  19    -0.828311050740E+03   -0.11976E-04   -0.23992E-07  5944   0.738E-04    0.445E-04
RMM:  20    -0.828311069175E+03   -0.18435E-04   -0.41882E-07  5925   0.683E-04    0.383E-04
RMM:  21    -0.828311080303E+03   -0.11128E-04   -0.29485E-07  5739   0.692E-04    0.292E-04
RMM:  22    -0.828311083930E+03   -0.36265E-05   -0.15866E-07  5414   0.580E-04    0.293E-04
RMM:  23    -0.828311087970E+03   -0.40399E-05   -0.13705E-07  5351   0.510E-04    0.221E-04
RMM:  24    -0.828311091975E+03   -0.40059E-05   -0.16749E-07  5345   0.486E-04    0.179E-04
RMM:  25    -0.828311092982E+03   -0.10069E-05   -0.92387E-08  4883   0.458E-04    0.129E-04
RMM:  26    -0.828311093435E+03   -0.45215E-06   -0.46448E-08  3984   0.360E-04
   2 F= -.83734045E+03 E0= -.83728830E+03  d E =-.615136E-04  mag=     0.0279
 trial-energy change:   -0.000062  1 .order   -0.000063   -0.010762    0.010635
 step:   0.5030(harm=  0.5030)  dis= 0.00204  next Energy=  -837.343091 (dE=-0.271E-02)
 bond charge predicted
       N       E                     dE             d eps       ncg     rms          rms(c)
DAV:   1    -0.828312994151E+03   -0.19012E-02   -0.26588E-01 12608   0.611E-01    0.567E-01
RMM:   2    -0.828314285021E+03   -0.12909E-02   -0.14960E-02 14320   0.198E-01    0.144E-01
RMM:   3    -0.828315870493E+03   -0.15855E-02   -0.25649E-03 13802   0.100E-01    0.311E-01
RMM:   4    -0.828314136970E+03    0.17335E-02   -0.94413E-04 13065   0.721E-02    0.970E-02
RMM:   5    -0.828314107902E+03    0.29068E-04   -0.41474E-04 12818   0.453E-02    0.788E-02
RMM:   6    -0.828314064698E+03    0.43204E-04   -0.19134E-04 13577   0.275E-02    0.389E-02
RMM:   7    -0.828314050421E+03    0.14277E-04   -0.60091E-05 13115   0.145E-02    0.272E-02
RMM:   8    -0.828314043858E+03    0.65636E-05   -0.18142E-05 10538   0.905E-03    0.133E-02
RMM:   9    -0.828314042606E+03    0.12518E-05   -0.56161E-06  9357   0.405E-03    0.783E-03
RMM:  10    -0.828314043157E+03   -0.55099E-06   -0.25173E-06  7943   0.296E-03
   3 F= -.83734309E+03 E0= -.83729070E+03  d E =-.270189E-02  mag=     0.0281
 curvature:  -0.25 expect dE=-0.124E-02 dE for cont linesearch -0.947E-07
 trial: gam= 0.45182 g(F)=  0.493E-02 g(S)=  0.000E+00 ort = 0.636E-04 (trialstep = 0.901E+00)
 search vector abs. value=  0.718E-02
 bond charge predicted
       N       E                     dE             d eps       ncg     rms          rms(c)
DAV:   1    -0.828313117081E+03    0.92553E-03   -0.55746E-01 12640   0.741E-01    0.465E-01
RMM:   2    -0.828315510830E+03   -0.23937E-02   -0.27591E-02 14179   0.209E-01    0.152E-01
RMM:   3    -0.828316437133E+03   -0.92630E-03   -0.27809E-03 13528   0.103E-01    0.279E-01
RMM:   4    -0.828315359063E+03    0.10781E-02   -0.83907E-04 13091   0.633E-02    0.115E-01
RMM:   5    -0.828315360372E+03   -0.13086E-05   -0.22730E-04 14317   0.165E-02    0.108E-01
RMM:   6    -0.828315270516E+03    0.89856E-04   -0.36098E-04 13918   0.155E-02    0.397E-02
RMM:   7    -0.828315278526E+03   -0.80102E-05   -0.49450E-05 11806   0.150E-02    0.270E-02
RMM:   8    -0.828315275962E+03    0.25641E-05   -0.14895E-05 10057   0.931E-03    0.195E-02
RMM:   9    -0.828315274738E+03    0.12243E-05   -0.97087E-06  9807   0.698E-03    0.166E-02
RMM:  10    -0.828315267591E+03    0.71471E-05   -0.82349E-06  9666   0.600E-03    0.114E-02
RMM:  11    -0.828315263195E+03    0.43952E-05   -0.27342E-06  8594   0.413E-03    0.452E-03
RMM:  12    -0.828315263366E+03   -0.17024E-06   -0.64153E-07  7439   0.175E-03
   4 F= -.83734511E+03 E0= -.83729293E+03  d E =-.202132E-02  mag=     0.0277
 trial-energy change:   -0.002021  1 .order   -0.002041   -0.004462    0.000379
 step:   0.8284(harm=  0.8300)  dis= 0.00377  next Energy=  -837.345123 (dE=-0.204E-02)
 bond charge predicted
       N       E                     dE             d eps       ncg     rms          rms(c)
DAV:   1    -0.828315325781E+03   -0.62586E-04   -0.35569E-03 13200   0.597E-02    0.366E-02
RMM:   2    -0.828315341904E+03   -0.16123E-04   -0.18139E-04 14709   0.170E-02    0.126E-02
RMM:   3    -0.828315345693E+03   -0.37885E-05   -0.14705E-05 10524   0.741E-03    0.192E-02
RMM:   4    -0.828315341071E+03    0.46212E-05   -0.43753E-06  8944   0.520E-03    0.949E-03
RMM:   5    -0.828315341443E+03   -0.37201E-06   -0.11184E-06  7475   0.174E-03
   5 F= -.83734512E+03 E0= -.83729285E+03  d E =-.203559E-02  mag=     0.0273
 curvature:  -0.60 expect dE=-0.282E-02 dE for cont linesearch -0.212E-07
 trial: gam= 0.95028 g(F)=  0.469E-02 g(S)=  0.000E+00 ort = 0.159E-04 (trialstep = 0.568E+00)
 search vector abs. value=  0.112E-01
 bond charge predicted
       N       E                     dE             d eps       ncg     rms          rms(c)
DAV:   1    -0.828315370554E+03   -0.29482E-04   -0.33867E-01 12376   0.491E-01    0.367E-01
RMM:   2    -0.828316806973E+03   -0.14364E-02   -0.16553E-02 14142   0.132E-01    0.107E-01
RMM:   3    -0.828316863307E+03   -0.56335E-04   -0.10370E-03 13779   0.507E-02    0.109E-01
RMM:   4    -0.828316797507E+03    0.65801E-04   -0.26480E-04 12369   0.295E-02    0.911E-02
RMM:   5    -0.828316771518E+03    0.25989E-04   -0.12395E-04 12348   0.173E-02    0.726E-02
RMM:   6    -0.828316742446E+03    0.29072E-04   -0.14588E-04 12533   0.174E-02    0.388E-02
RMM:   7    -0.828316739342E+03    0.31038E-05   -0.34023E-05 10878   0.106E-02    0.283E-02
RMM:   8    -0.828316730021E+03    0.93210E-05   -0.81268E-06  9775   0.637E-03    0.159E-02
RMM:   9    -0.828316723457E+03    0.65643E-05   -0.25049E-06  7742   0.283E-03    0.117E-02
RMM:  10    -0.828316713329E+03    0.10128E-04   -0.49697E-06  8328   0.335E-03    0.984E-03
RMM:  11    -0.828316707390E+03    0.59395E-05   -0.21787E-06  8140   0.346E-03    0.269E-03
RMM:  12    -0.828316705936E+03    0.14539E-05   -0.41709E-07  7243   0.145E-03    0.211E-03
RMM:  13    -0.828316705239E+03    0.69700E-06   -0.21535E-07  6977   0.111E-03
   6 F= -.83734727E+03 E0= -.83729516E+03  d E =-.215179E-02  mag=     0.0254
 trial-energy change:   -0.002152  1 .order   -0.002174   -0.002672   -0.001676
 step:   1.5244(harm=  1.5244)  dis= 0.00683  next Energy=  -837.348708 (dE=-0.359E-02)
 bond charge predicted
       N       E                     dE             d eps       ncg     rms          rms(c)
DAV:   1    -0.828312951869E+03    0.37541E-02   -0.95804E-01 12296   0.826E-01    0.603E-01
RMM:   2    -0.828317027457E+03   -0.40756E-02   -0.46814E-02 14170   0.223E-01    0.183E-01
RMM:   3    -0.828317282512E+03   -0.25505E-03   -0.30561E-03 13888   0.875E-02    0.199E-01
RMM:   4    -0.828316998464E+03    0.28405E-03   -0.74601E-04 12954   0.478E-02    0.153E-01
RMM:   5    -0.828316910914E+03    0.87550E-04   -0.34092E-04 13014   0.296E-02    0.124E-01
RMM:   6    -0.828316823244E+03    0.87670E-04   -0.47090E-04 13188   0.303E-02    0.653E-02
RMM:   7    -0.828316816971E+03    0.62727E-05   -0.11338E-04 12235   0.199E-02    0.484E-02
RMM:   8    -0.828316790126E+03    0.26845E-04   -0.26557E-05 10420   0.111E-02    0.267E-02
RMM:   9    -0.828316774696E+03    0.15430E-04   -0.10032E-05  9798   0.587E-03    0.198E-02
RMM:  10    -0.828316748068E+03    0.26628E-04   -0.19228E-05 10113   0.692E-03    0.124E-02
RMM:  11    -0.828316741594E+03    0.64747E-05   -0.44768E-06  9186   0.498E-03    0.504E-03
RMM:  12    -0.828316739562E+03    0.20312E-05   -0.84188E-07  7429   0.201E-03    0.370E-03
RMM:  13    -0.828316738925E+03    0.63757E-06   -0.43562E-07  7296   0.166E-03
   7 F= -.83734862E+03 E0= -.83729665E+03  d E =-.350183E-02  mag=     0.0218
 curvature:  -1.82 expect dE=-0.167E-01 dE for cont linesearch -0.989E-07
 trial: gam= 1.98097 g(F)=  0.919E-02 g(S)=  0.000E+00 ort = 0.247E-04 (trialstep = 0.160E+00)
 search vector abs. value=  0.533E-01
 bond charge predicted
       N       E                     dE             d eps       ncg     rms          rms(c)
DAV:   1    -0.828317051817E+03   -0.31225E-03   -0.12006E-01 12624   0.289E-01    0.200E-01
RMM:   2    -0.828317561098E+03   -0.50928E-03   -0.58823E-03 14232   0.769E-02    0.630E-02
RMM:   3    -0.828317590915E+03   -0.29817E-04   -0.38727E-04 13848   0.273E-02    0.612E-02
RMM:   4    -0.828317575407E+03    0.15508E-04   -0.89195E-05 11511   0.144E-02    0.554E-02
RMM:   5    -0.828317563328E+03    0.12078E-04   -0.35306E-05 11064   0.725E-03    0.384E-02
RMM:   6    -0.828317563603E+03   -0.27461E-06   -0.45326E-05 11154   0.881E-03    0.254E-02
RMM:   7    -0.828317563765E+03   -0.16179E-06   -0.15480E-05 10497   0.588E-03    0.150E-02
RMM:   8    -0.828317561920E+03    0.18446E-05   -0.27850E-06  8602   0.427E-03    0.948E-03
RMM:   9    -0.828317560556E+03    0.13645E-05   -0.16678E-06  7498   0.243E-03    0.695E-03
RMM:  10    -0.828317560029E+03    0.52677E-06   -0.25240E-06  7610   0.238E-03
   8 F= -.83735000E+03 E0= -.83729800E+03  d E =-.137164E-02  mag=     0.0184
 trial-energy change:   -0.001372  1 .order   -0.001354   -0.001475   -0.001233
 step:   0.5033(harm=  0.9738)  dis= 0.00286  next Energy=  -837.351496 (dE=-0.287E-02)
 bond charge predicted
       N       E                     dE             d eps       ncg     rms          rms(c)
DAV:   1    -0.828316199273E+03    0.13613E-02   -0.55564E-01 12120   0.623E-01    0.425E-01
RMM:   2    -0.828318572152E+03   -0.23729E-02   -0.27271E-02 14279   0.165E-01    0.138E-01
RMM:   3    -0.828318679647E+03   -0.10749E-03   -0.17426E-03 14277   0.588E-02    0.131E-01
RMM:   4    -0.828318612486E+03    0.67160E-04   -0.40830E-04 12452   0.299E-02    0.118E-01
RMM:   5    -0.828318553150E+03    0.59336E-04   -0.14293E-04 12688   0.172E-02    0.889E-02
RMM:   6    -0.828318529436E+03    0.23714E-04   -0.22656E-04 12769   0.197E-02    0.519E-02
RMM:   7    -0.828318536121E+03   -0.66854E-05   -0.76790E-05 12354   0.121E-02    0.355E-02
RMM:   8    -0.828318524342E+03    0.11780E-04   -0.13528E-05 10023   0.831E-03    0.205E-02
RMM:   9    -0.828318514817E+03    0.95247E-05   -0.13182E-05  9422   0.479E-03    0.116E-02
RMM:  10    -0.828318511316E+03    0.35006E-05   -0.76640E-06  9700   0.537E-03    0.726E-03
RMM:  11    -0.828318510411E+03    0.90575E-06   -0.12745E-06  7450   0.286E-03
   9 F= -.83735214E+03 E0= -.83730027E+03  d E =-.351358E-02  mag=     0.0147
 curvature:  -1.87 expect dE=-0.121E-01 dE for cont linesearch -0.731E-03
 ZBRENT: increasing intervall
 opt :   1.1905  next Energy=  -837.353105 (dE=-0.448E-02)
 bond charge predicted
       N       E                     dE             d eps       ncg     rms          rms(c)
DAV:   1    -0.828307855503E+03    0.10656E-01   -0.22208E+00 12060   0.125E+00    0.836E-01
RMM:   2    -0.828317379727E+03   -0.95242E-02   -0.10950E-01 14269   0.332E-01    0.274E-01
RMM:   3    -0.828317978572E+03   -0.59885E-03   -0.72184E-03 14316   0.121E-01    0.281E-01
RMM:   4    -0.828317537897E+03    0.44068E-03   -0.16971E-03 13097   0.590E-02    0.235E-01
RMM:   5    -0.828317259834E+03    0.27806E-03   -0.54733E-04 13390   0.298E-02    0.173E-01
RMM:   6    -0.828317186781E+03    0.73053E-04   -0.88438E-04 13332   0.379E-02    0.111E-01
RMM:   7    -0.828317187665E+03   -0.88407E-06   -0.37719E-04 13306   0.282E-02    0.674E-02
RMM:   8    -0.828317154056E+03    0.33609E-04   -0.57491E-05 11075   0.172E-02    0.419E-02
RMM:   9    -0.828317138737E+03    0.15319E-04   -0.26717E-05 10806   0.791E-03    0.296E-02
RMM:  10    -0.828317121563E+03    0.17174E-04   -0.45754E-05 10905   0.763E-03    0.164E-02
RMM:  11    -0.828317117151E+03    0.44116E-05   -0.84857E-06  9743   0.624E-03    0.676E-03
RMM:  12    -0.828317117366E+03   -0.21482E-06   -0.13407E-06  7537   0.272E-03
  10 F= -.83735316E+03 E0= -.83730142E+03  d E =-.453476E-02  mag=     0.0105
 curvature:  -2.47 expect dE=-0.597E-01 dE for cont linesearch -0.133E-03
 trial: gam= 2.83357 g(F)=  0.241E-01 g(S)=  0.000E+00 ort =-0.169E-02 (trialstep = 0.441E-01)
 search vector abs. value=  0.442E+00
 bond charge predicted
       N       E                     dE             d eps       ncg     rms          rms(c)
DAV:   1    -0.828317173320E+03   -0.56169E-04   -0.73664E-02 12600   0.197E-01    0.156E-01
RMM:   2    -0.828317495651E+03   -0.32233E-03   -0.36578E-03 13526   0.560E-02    0.477E-02
RMM:   3    -0.828317512604E+03   -0.16952E-04   -0.25614E-04 13981   0.213E-02    0.414E-02
RMM:   4    -0.828317513709E+03   -0.11050E-05   -0.50019E-05 10611   0.941E-03    0.430E-02
RMM:   5    -0.828317508307E+03    0.54016E-05   -0.11646E-05  9594   0.523E-03    0.317E-02
RMM:   6    -0.828317510259E+03   -0.19517E-05   -0.22775E-05 10452   0.607E-03    0.207E-02
RMM:   7    -0.828317517484E+03   -0.72253E-05   -0.17220E-05 10291   0.491E-03    0.101E-02
RMM:   8    -0.828317518898E+03   -0.14135E-05   -0.14706E-06  7433   0.298E-03    0.757E-03
RMM:   9    -0.828317520897E+03   -0.19996E-05   -0.55074E-07  7211   0.172E-03    0.666E-03
RMM:  10    -0.828317529224E+03   -0.83270E-05   -0.28801E-06  7416   0.204E-03    0.388E-03
RMM:  11    -0.828317533456E+03   -0.42313E-05   -0.59797E-07  6966   0.171E-03    0.189E-03
RMM:  12    -0.828317536823E+03   -0.33677E-05   -0.13047E-07  6373   0.757E-04    0.115E-03
RMM:  13    -0.828317539597E+03   -0.27741E-05   -0.67112E-08  5589   0.535E-04    0.106E-03
RMM:  14    -0.828317545468E+03   -0.58704E-05   -0.70397E-08  5265   0.467E-04    0.101E-03
RMM:  15    -0.828317555672E+03   -0.10204E-04   -0.12029E-07  5390   0.477E-04    0.901E-04
RMM:  16    -0.828317568383E+03   -0.12711E-04   -0.17400E-07  5571   0.503E-04    0.853E-04
RMM:  17    -0.828317578571E+03   -0.10187E-04   -0.16125E-07  5556   0.525E-04    0.733E-04
RMM:  18    -0.828317585517E+03   -0.69465E-05   -0.12263E-07  5064   0.462E-04    0.640E-04
RMM:  19    -0.828317603360E+03   -0.17843E-04   -0.41730E-07  5790   0.519E-04    0.603E-04
RMM:  20    -0.828317614268E+03   -0.10908E-04   -0.27487E-07  5726   0.587E-04    0.449E-04
RMM:  21    -0.828317619511E+03   -0.52427E-05   -0.18004E-07  4930   0.461E-04    0.281E-04
RMM:  22    -0.828317623627E+03   -0.41157E-05   -0.13113E-07  4777   0.462E-04    0.264E-04
RMM:  23    -0.828317626736E+03   -0.31090E-05   -0.12549E-07  4638   0.436E-04    0.300E-04
RMM:  24    -0.828317628917E+03   -0.21809E-05   -0.11448E-07  4299   0.418E-04    0.251E-04
RMM:  25    -0.828317629267E+03   -0.35088E-06   -0.55740E-08  3736   0.374E-04
  11 F= -.83735415E+03 E0= -.83730244E+03  d E =-.990203E-03  mag=     0.0006
 ZBRENT: can't locate minimum, use default step
 trial-energy change:   -0.000990  1 .order   -0.000850   -0.000852   -0.000848
 step:   0.1763(harm=  9.8775)  dis= 0.00300  next Energy=  -837.448659 (dE=-0.955E-01)
 bond charge predicted
       N       E                     dE             d eps       ncg     rms          rms(c)
DAV:   1    -0.828315825054E+03    0.18039E-02   -0.66245E-01 12616   0.591E-01    0.460E-01
RMM:   2    -0.828318690966E+03   -0.28659E-02   -0.32636E-02 13829   0.161E-01    0.143E-01
RMM:   3    -0.828318803168E+03   -0.11220E-03   -0.21475E-03 14850   0.570E-02    0.125E-01
RMM:   4    -0.828318795589E+03    0.75795E-05   -0.43881E-04 12459   0.256E-02    0.130E-01
RMM:   5    -0.828318697410E+03    0.98178E-04   -0.15117E-04 12326   0.130E-02    0.865E-02
RMM:   6    -0.828318696368E+03    0.10423E-05   -0.23780E-04 12191   0.174E-02    0.586E-02
RMM:   7    -0.828318688715E+03    0.76531E-05   -0.83934E-05 11766   0.116E-02    0.282E-02
RMM:   8    -0.828318686333E+03    0.23816E-05   -0.99515E-06  9774   0.663E-03    0.238E-02
RMM:   9    -0.828318682921E+03    0.34129E-05   -0.15468E-05  8462   0.379E-03    0.148E-02
RMM:  10    -0.828318684309E+03   -0.13888E-05   -0.11719E-05  9424   0.442E-03    0.101E-02
RMM:  11    -0.828318682938E+03    0.13713E-05   -0.16229E-06  7416   0.285E-03    0.269E-03
RMM:  12    -0.828318682851E+03    0.87450E-07   -0.59045E-07  6912   0.150E-03
  12 F= -.83735665E+03 E0= -.83730501E+03  d E =-.348974E-02  mag=     0.0004
 curvature:  -3.02 expect dE=-0.801E-01 dE for cont linesearch -0.236E-02
 ZBRENT: increasing intervall
 opt :   0.4407  next Energy=  -837.361397 (dE=-0.824E-02)
 bond charge predicted
       N       E                     dE             d eps       ncg     rms          rms(c)
DAV:   1    -0.828308952045E+03    0.97309E-02   -0.26483E+00 12008   0.118E+00    0.913E-01
RMM:   2    -0.828320515688E+03   -0.11564E-01   -0.13133E-01 13836   0.326E-01    0.292E-01
RMM:   3    -0.828321034415E+03   -0.51873E-03   -0.87334E-03 14775   0.118E-01    0.263E-01
RMM:   4    -0.828320908581E+03    0.12583E-03   -0.18702E-03 13047   0.506E-02    0.260E-01
RMM:   5    -0.828320521321E+03    0.38726E-03   -0.58467E-04 13267   0.244E-02    0.180E-01
RMM:   6    -0.828320482672E+03    0.38649E-04   -0.10287E-03 13036   0.385E-02    0.119E-01
RMM:   7    -0.828320462831E+03    0.19841E-04   -0.40877E-04 12956   0.278E-02    0.595E-02
RMM:   8    -0.828320450665E+03    0.12166E-04   -0.46328E-05 10807   0.138E-02    0.481E-02
RMM:   9    -0.828320436296E+03    0.14369E-04   -0.53454E-05 10899   0.963E-03    0.304E-02
RMM:  10    -0.828320432799E+03    0.34965E-05   -0.55742E-05 11268   0.103E-02    0.905E-03
RMM:  11    -0.828320432963E+03   -0.16412E-06   -0.40791E-06  8921   0.432E-03
  13 F= -.83736134E+03 E0= -.83730980E+03  d E =-.818238E-02  mag=     0.0002
 curvature:  -6.07 expect dE=-0.190E+00 dE for cont linesearch -0.394E-02
 ZBRENT: increasing intervall
 opt :   0.9696  next Energy=  -837.369416 (dE=-0.163E-01)
 bond charge predicted
       N       E                     dE             d eps       ncg     rms          rms(c)
DAV:   1    -0.828275804644E+03    0.44628E-01   -0.10585E+01 11960   0.237E+00    0.181E+00
RMM:   2    -0.828322540080E+03   -0.46735E-01   -0.53067E-01 13810   0.675E-01    0.576E-01
RMM:   3    -0.828325898864E+03   -0.33588E-02   -0.39985E-02 14272   0.271E-01    0.585E-01
RMM:   4    -0.828324519247E+03    0.13796E-02   -0.90157E-03 13224   0.113E-01    0.524E-01
RMM:   5    -0.828323107723E+03    0.14115E-02   -0.19477E-03 13606   0.508E-02    0.394E-01
RMM:   6    -0.828322654227E+03    0.45350E-03   -0.43168E-03 13340   0.750E-02    0.256E-01
RMM:   7    -0.828322638925E+03    0.15302E-04   -0.24054E-03 13737   0.625E-02    0.135E-01
RMM:   8    -0.828322564842E+03    0.74083E-04   -0.24981E-04 12145   0.326E-02    0.999E-02
RMM:   9    -0.828322532479E+03    0.32363E-04   -0.12485E-04 11674   0.207E-02    0.839E-02
RMM:  10    -0.828322480975E+03    0.51504E-04   -0.35204E-04 12388   0.217E-02    0.269E-02
RMM:  11    -0.828322476287E+03    0.46877E-05   -0.32873E-05 10572   0.110E-02    0.174E-02
RMM:  12    -0.828322476896E+03   -0.60900E-06   -0.91353E-06  9563   0.603E-03
  14 F= -.83736948E+03 E0= -.83731833E+03  d E =-.163210E-01  mag=     0.0001
 curvature: -12.45 expect dE=-0.550E+00 dE for cont linesearch -0.532E-02
 ZBRENT: increasing intervall
 opt :   2.0274  next Energy=  -837.380656 (dE=-0.275E-01)
 bond charge predicted
       N       E                     dE             d eps       ncg     rms          rms(c)
DAV:   1    -0.828129784280E+03    0.19269E+00   -0.42310E+01 12024   0.475E+00    0.367E+00
RMM:   2    -0.828323954485E+03   -0.19417E+00   -0.21935E+00 13685   0.145E+00    0.129E+00
RMM:   3    -0.828339224488E+03   -0.15270E-01   -0.16900E-01 13986   0.620E-01    0.133E+00
RMM:   4    -0.828329297981E+03    0.99265E-02   -0.37977E-02 13236   0.298E-01    0.106E+00
RMM:   5    -0.828324014189E+03    0.52838E-02   -0.76754E-03 13983   0.117E-01    0.827E-01
RMM:   6    -0.828321470776E+03    0.25434E-02   -0.13512E-02 13278   0.143E-01    0.561E-01
RMM:   7    -0.828321152707E+03    0.31807E-03   -0.95811E-03 13894   0.123E-01    0.303E-01
RMM:   8    -0.828321013885E+03    0.13882E-03   -0.12303E-03 12919   0.721E-02    0.221E-01
RMM:   9    -0.828321052235E+03   -0.38351E-04   -0.42595E-04 12824   0.421E-02    0.193E-01
RMM:  10    -0.828320807035E+03    0.24520E-03   -0.83176E-04 12809   0.417E-02    0.492E-02
RMM:  11    -0.828320820315E+03   -0.13281E-04   -0.99752E-05 11684   0.205E-02    0.313E-02
RMM:  12    -0.828320823479E+03   -0.31639E-05   -0.29747E-05 10307   0.104E-02    0.244E-02
RMM:  13    -0.828320831671E+03   -0.81923E-05   -0.10379E-05  9983   0.618E-03    0.198E-02
RMM:  14    -0.828320842864E+03   -0.11192E-04   -0.75080E-06  9392   0.470E-03    0.127E-02
RMM:  15    -0.828320852984E+03   -0.10120E-04   -0.41131E-06  8737   0.369E-03    0.690E-03
RMM:  16    -0.828320879366E+03   -0.26383E-04   -0.50279E-06  7919   0.288E-03    0.451E-03
RMM:  17    -0.828320884632E+03   -0.52652E-05   -0.13215E-06  7425   0.290E-03    0.318E-03
RMM:  18    -0.828320892590E+03   -0.79586E-05   -0.77113E-07  6991   0.135E-03    0.194E-03
RMM:  19    -0.828320902393E+03   -0.98025E-05   -0.84120E-07  6925   0.131E-03    0.145E-03
RMM:  20    -0.828320915331E+03   -0.12938E-04   -0.75052E-07  6774   0.112E-03    0.155E-03
RMM:  21    -0.828320926793E+03   -0.11461E-04   -0.70658E-07  6695   0.105E-03    0.129E-03
RMM:  22    -0.828320929321E+03   -0.25289E-05   -0.20549E-07  5918   0.839E-04    0.816E-04
RMM:  23    -0.828320932292E+03   -0.29709E-05   -0.18969E-07  5835   0.606E-04    0.773E-04
RMM:  24    -0.828320936750E+03   -0.44571E-05   -0.18502E-07  6126   0.632E-04    0.579E-04
RMM:  25    -0.828320939902E+03   -0.31526E-05   -0.20810E-07  5712   0.512E-04    0.439E-04
RMM:  26    -0.828320940850E+03   -0.94792E-06   -0.79885E-08  5061   0.470E-04
  15 F= -.83738103E+03 E0= -.83733060E+03  d E =-.278715E-01  mag=     0.0000
 curvature: -26.13 expect dE=-0.221E+01 dE for cont linesearch -0.370E-02
 trial: gam= 1.98252 g(F)=  0.844E-01 g(S)=  0.000E+00 ort = 0.792E-02 (trialstep = 0.105E+00)
 search vector abs. value=  0.185E+01
 bond charge predicted
       N       E                     dE             d eps       ncg     rms          rms(c)
DAV:   1    -0.828320558263E+03    0.38164E-03   -0.17321E+00 12216   0.984E-01    0.732E-01
RMM:   2    -0.828328083918E+03   -0.75257E-02   -0.86395E-02 14078   0.268E-01    0.235E-01
RMM:   3    -0.828328436554E+03   -0.35264E-03   -0.58708E-03 14374   0.104E-01    0.214E-01
RMM:   4    -0.828328350275E+03    0.86278E-04   -0.13610E-03 12909   0.483E-02    0.211E-01
RMM:   5    -0.828328141622E+03    0.20865E-03   -0.32563E-04 12925   0.242E-02    0.157E-01
RMM:   6    -0.828328063882E+03    0.77739E-04   -0.71414E-04 12999   0.315E-02    0.973E-02
RMM:   7    -0.828328070683E+03   -0.68009E-05   -0.36202E-04 13458   0.192E-02    0.407E-02
RMM:   8    -0.828328062951E+03    0.77322E-05   -0.19506E-05 10293   0.898E-03    0.346E-02
RMM:   9    -0.828328059844E+03    0.31071E-05   -0.52459E-05 10946   0.944E-03    0.276E-02
RMM:  10    -0.828328053134E+03    0.67097E-05   -0.37198E-05 11101   0.700E-03    0.807E-03
RMM:  11    -0.828328052209E+03    0.92520E-06   -0.30200E-06  8312   0.361E-03
  16 F= -.83739103E+03 E0= -.83734075E+03  d E =-.100009E-01  mag=     0.0000
 ZBRENT: can't locate minimum, use default step
 trial-energy change:   -0.010001  1 .order   -0.010018   -0.010522   -0.009515
 step:   0.4205(harm=  1.0986)  dis= 0.01462  next Energy=  -837.436007 (dE=-0.550E-01)
 bond charge predicted
       N       E                     dE             d eps       ncg     rms          rms(c)
DAV:   1    -0.828273957908E+03    0.54095E-01   -0.15577E+01 11960   0.295E+00    0.223E+00
RMM:   2    -0.828343225835E+03   -0.69268E-01   -0.79480E-01 14013   0.841E-01    0.742E-01
RMM:   3    -0.828346938656E+03   -0.37128E-02   -0.59091E-02 14332   0.337E-01    0.674E-01
RMM:   4    -0.828345926371E+03    0.10123E-02   -0.13944E-02 13296   0.151E-01    0.639E-01
RMM:   5    -0.828344168508E+03    0.17579E-02   -0.24291E-03 13486   0.683E-02    0.504E-01
RMM:   6    -0.828343205462E+03    0.96305E-03   -0.45630E-03 13459   0.845E-02    0.348E-01
RMM:   7    -0.828343169588E+03    0.35874E-04   -0.50069E-03 14014   0.721E-02    0.162E-01
RMM:   8    -0.828343093995E+03    0.75593E-04   -0.37492E-04 12498   0.370E-02    0.127E-01
RMM:   9    -0.828343040952E+03    0.53043E-04   -0.12969E-04 12231   0.217E-02    0.105E-01
RMM:  10    -0.828342963210E+03    0.77743E-04   -0.65463E-04 12822   0.219E-02    0.327E-02
RMM:  11    -0.828342963511E+03   -0.30109E-06   -0.66123E-05 10904   0.174E-02    0.213E-02
RMM:  12    -0.828342962799E+03    0.71158E-06   -0.13662E-05  9880   0.778E-03    0.120E-02
RMM:  13    -0.828342964873E+03   -0.20733E-05   -0.37279E-06  8761   0.368E-03    0.928E-03
RMM:  14    -0.828342971852E+03   -0.69790E-05   -0.21257E-06  7736   0.290E-03    0.841E-03
RMM:  15    -0.828342979855E+03   -0.80028E-05   -0.19664E-06  7799   0.301E-03    0.426E-03
RMM:  16    -0.828342987391E+03   -0.75361E-05   -0.15466E-06  7576   0.217E-03    0.242E-03
RMM:  17    -0.828342994239E+03   -0.68480E-05   -0.92148E-07  7432   0.191E-03    0.227E-03
RMM:  18    -0.828342998697E+03   -0.44588E-05   -0.38320E-07  6810   0.136E-03    0.174E-03
RMM:  19    -0.828343008443E+03   -0.97461E-05   -0.11606E-06  6744   0.107E-03    0.129E-03
RMM:  20    -0.828343011932E+03   -0.34884E-05   -0.33604E-07  6413   0.961E-04    0.969E-04
RMM:  21    -0.828343017729E+03   -0.57976E-05   -0.32841E-07  6346   0.698E-04    0.785E-04
RMM:  22    -0.828343021921E+03   -0.41918E-05   -0.26197E-07  5956   0.710E-04    0.544E-04
RMM:  23    -0.828343024395E+03   -0.24740E-05   -0.19980E-07  5581   0.586E-04    0.400E-04
RMM:  24    -0.828343025562E+03   -0.11668E-05   -0.10107E-07  5165   0.489E-04    0.297E-04
RMM:  25    -0.828343027041E+03   -0.14789E-05   -0.82490E-08  4868   0.399E-04    0.229E-04
RMM:  26    -0.828343028155E+03   -0.11143E-05   -0.71917E-08  4578   0.383E-04    0.234E-04
RMM:  27    -0.828343028621E+03   -0.46533E-06   -0.40678E-08  3806   0.345E-04
  17 F= -.83741501E+03 E0= -.83736511E+03  d E =-.339826E-01  mag=     0.0000
 curvature:  -5.43 expect dE=-0.223E+00 dE for cont linesearch -0.112E-01
 ZBRENT: increasing intervall
 opt :   1.0513  next Energy=  -837.435964 (dE=-0.549E-01)
 bond charge predicted
       N       E                     dE             d eps       ncg     rms          rms(c)
DAV:   1    -0.828055632822E+03    0.28740E+00   -0.62237E+01 12008   0.594E+00    0.482E+00
RMM:   2    -0.828350886754E+03   -0.29525E+00   -0.33795E+00 13920   0.181E+00    0.173E+00
RMM:   3    -0.828365204085E+03   -0.14317E-01   -0.23967E-01 14201   0.742E-01    0.156E+00
RMM:   4    -0.828356257416E+03    0.89467E-02   -0.45117E-02 13273   0.347E-01    0.135E+00
RMM:   5    -0.828349483915E+03    0.67735E-02   -0.10438E-02 13822   0.146E-01    0.109E+00
RMM:   6    -0.828345556023E+03    0.39279E-02   -0.16597E-02 13443   0.169E-01    0.777E-01
RMM:   7    -0.828344702029E+03    0.85399E-03   -0.16432E-02 14013   0.154E-01    0.386E-01
RMM:   8    -0.828344493240E+03    0.20879E-03   -0.20558E-03 12815   0.929E-02    0.287E-01
RMM:   9    -0.828344506439E+03   -0.13199E-04   -0.65054E-04 13150   0.504E-02    0.241E-01
RMM:  10    -0.828344200932E+03    0.30551E-03   -0.11079E-03 13068   0.490E-02    0.718E-02
RMM:  11    -0.828344225615E+03   -0.24682E-04   -0.22267E-04 12285   0.300E-02    0.474E-02
RMM:  12    -0.828344217911E+03    0.77034E-05   -0.64592E-05 10747   0.163E-02    0.242E-02
RMM:  13    -0.828344224091E+03   -0.61793E-05   -0.16689E-05 10807   0.594E-03    0.173E-02
RMM:  14    -0.828344236359E+03   -0.12269E-04   -0.41706E-06  9018   0.409E-03    0.148E-02
RMM:  15    -0.828344274423E+03   -0.38063E-04   -0.84091E-06  9595   0.453E-03    0.671E-03
RMM:  16    -0.828344288241E+03   -0.13818E-04   -0.36524E-06  8504   0.374E-03    0.548E-03
RMM:  17    -0.828344296823E+03   -0.85822E-05   -0.12370E-06  7539   0.252E-03    0.267E-03
RMM:  18    -0.828344308408E+03   -0.11585E-04   -0.55327E-07  7379   0.153E-03    0.227E-03
RMM:  19    -0.828344325491E+03   -0.17083E-04   -0.10152E-06  6687   0.143E-03    0.266E-03
RMM:  20    -0.828344342952E+03   -0.17462E-04   -0.12845E-06  7133   0.131E-03    0.134E-03
RMM:  21    -0.828344350793E+03   -0.78406E-05   -0.33223E-07  6474   0.101E-03    0.142E-03
RMM:  22    -0.828344362720E+03   -0.11927E-04   -0.66010E-07  6732   0.986E-04    0.102E-03
RMM:  23    -0.828344372805E+03   -0.10085E-04   -0.64949E-07  6488   0.819E-04    0.794E-04
RMM:  24    -0.828344375854E+03   -0.30487E-05   -0.21783E-07  6012   0.718E-04    0.641E-04
RMM:  25    -0.828344377779E+03   -0.19246E-05   -0.14464E-07  5506   0.532E-04    0.385E-04
RMM:  26    -0.828344380713E+03   -0.29343E-05   -0.15093E-07  5626   0.505E-04    0.345E-04
RMM:  27    -0.828344381934E+03   -0.12211E-05   -0.77641E-08  5029   0.452E-04    0.248E-04
RMM:  28    -0.828344382846E+03   -0.91179E-06   -0.37852E-08  4076   0.348E-04
  18 F= -.83743599E+03 E0= -.83738692E+03  d E =-.549638E-01  mag=     0.0000
 curvature: -10.15 expect dE=-0.171E+01 dE for cont linesearch -0.117E-03
 trial: gam= 2.40324 g(F)=  0.168E+00 g(S)=  0.000E+00 ort = 0.462E-02 (trialstep = 0.501E-01)
 search vector abs. value=  0.109E+02
 bond charge predicted
       N       E                     dE             d eps       ncg     rms          rms(c)
DAV:   1    -0.828338836568E+03    0.55454E-02   -0.22987E+00 12192   0.110E+00    0.860E-01
RMM:   2    -0.828348962487E+03   -0.10126E-01   -0.11633E-01 13779   0.305E-01    0.269E-01
RMM:   3    -0.828349368231E+03   -0.40574E-03   -0.81365E-03 15095   0.115E-01    0.228E-01
RMM:   4    -0.828349402497E+03   -0.34265E-04   -0.15946E-03 12925   0.477E-02    0.238E-01
RMM:   5    -0.828349038020E+03    0.36448E-03   -0.57927E-04 13367   0.290E-02    0.151E-01
RMM:   6    -0.828349031670E+03    0.63499E-05   -0.93373E-04 13074   0.354E-02    0.929E-02
RMM:   7    -0.828349014669E+03    0.17002E-04   -0.22561E-04 12338   0.241E-02    0.447E-02
RMM:   8    -0.828349005964E+03    0.87049E-05   -0.26520E-05 10964   0.834E-03    0.410E-02
RMM:   9    -0.828348997220E+03    0.87437E-05   -0.42451E-05 10798   0.835E-03    0.322E-02
RMM:  10    -0.828348997142E+03    0.78457E-07   -0.68245E-05 12085   0.902E-03    0.126E-02
RMM:  11    -0.828348995410E+03    0.17317E-05   -0.44735E-06  9187   0.492E-03    0.631E-03
RMM:  12    -0.828348995051E+03    0.35909E-06   -0.16237E-06  7499   0.226E-03
  19 F= -.83744478E+03 E0= -.83739581E+03  d E =-.878232E-02  mag=     0.0000
 ZBRENT: can't locate minimum, use default step
 trial-energy change:   -0.008782  1 .order   -0.008815   -0.008992   -0.008637
 step:   0.2003(harm=  1.2682)  dis= 0.01690  next Energy=  -837.549864 (dE=-0.114E+00)
 bond charge predicted
       N       E                     dE             d eps       ncg     rms          rms(c)
DAV:   1    -0.828265692407E+03    0.83303E-01   -0.20666E+01 11960   0.332E+00    0.267E+00
RMM:   2    -0.828360457441E+03   -0.94765E-01   -0.10860E+00 13668   0.967E-01    0.875E-01
RMM:   3    -0.828365048423E+03   -0.45910E-02   -0.78862E-02 14423   0.398E-01    0.775E-01
RMM:   4    -0.828364022507E+03    0.10259E-02   -0.16816E-02 13163   0.169E-01    0.753E-01
RMM:   5    -0.828361091632E+03    0.29309E-02   -0.39505E-03 13749   0.767E-02    0.555E-01
RMM:   6    -0.828360150542E+03    0.94109E-03   -0.87630E-03 13431   0.111E-01    0.346E-01
RMM:   7    -0.828360078442E+03    0.72101E-04   -0.38352E-03 13890   0.822E-02    0.168E-01
RMM:   8    -0.828360004970E+03    0.73471E-04   -0.36932E-04 12358   0.399E-02    0.139E-01
RMM:   9    -0.828360010394E+03   -0.54238E-05   -0.33069E-04 12591   0.287E-02    0.124E-01
RMM:  10    -0.828359887273E+03    0.12312E-03   -0.62298E-04 13030   0.319E-02    0.286E-02
RMM:  11    -0.828359883662E+03    0.36108E-05   -0.39545E-05 10909   0.110E-02    0.155E-02
RMM:  12    -0.828359886155E+03   -0.24929E-05   -0.10791E-05  9687   0.574E-03    0.113E-02
RMM:  13    -0.828359894154E+03   -0.79992E-05   -0.28004E-06  8272   0.298E-03    0.980E-03
RMM:  14    -0.828359905626E+03   -0.11472E-04   -0.22269E-06  8185   0.325E-03    0.705E-03
RMM:  15    -0.828359920407E+03   -0.14781E-04   -0.39333E-06  7758   0.281E-03    0.310E-03
RMM:  16    -0.828359929723E+03   -0.93156E-05   -0.14210E-06  7468   0.226E-03    0.313E-03
RMM:  17    -0.828359935100E+03   -0.53766E-05   -0.56406E-07  6939   0.161E-03    0.273E-03
RMM:  18    -0.828359945807E+03   -0.10707E-04   -0.10643E-06  6862   0.120E-03    0.141E-03
RMM:  19    -0.828359954134E+03   -0.83273E-05   -0.88220E-07  6671   0.108E-03    0.145E-03
RMM:  20    -0.828359960001E+03   -0.58670E-05   -0.37199E-07  6313   0.950E-04    0.106E-03
RMM:  21    -0.828359966236E+03   -0.62352E-05   -0.31360E-07  6014   0.751E-04    0.107E-03
RMM:  22    -0.828359971902E+03   -0.56653E-05   -0.43082E-07  6148   0.780E-04    0.624E-04
RMM:  23    -0.828359974359E+03   -0.24576E-05   -0.18493E-07  5553   0.632E-04    0.303E-04
RMM:  24    -0.828359975943E+03   -0.15839E-05   -0.12812E-07  5175   0.488E-04    0.349E-04
RMM:  25    -0.828359977366E+03   -0.14232E-05   -0.81261E-08  4808   0.438E-04    0.253E-04
RMM:  26    -0.828359978823E+03   -0.14564E-05   -0.66288E-08  4373   0.388E-04    0.230E-04
RMM:  27    -0.828359979530E+03   -0.70690E-06   -0.44035E-08  3977   0.367E-04
  20 F= -.83746880E+03 E0= -.83742021E+03  d E =-.328027E-01  mag=     0.0000
 curvature:  -8.90 expect dE=-0.130E+01 dE for cont linesearch -0.178E-01
 ZBRENT: increasing intervall
 opt :   0.5008  next Energy=  -837.505643 (dE=-0.696E-01)
 bond charge predicted
       N       E                     dE             d eps       ncg     rms          rms(c)
DAV:   1    -0.827962460352E+03    0.39752E+00   -0.82481E+01 12008   0.667E+00    0.606E+00
RMM:   2    -0.828374625086E+03   -0.41216E+00   -0.47290E+00 13639   0.210E+00    0.217E+00
RMM:   3    -0.828400324585E+03   -0.25699E-01   -0.35143E-01 14152   0.900E-01    0.195E+00
RMM:   4    -0.828384978542E+03    0.15346E-01   -0.58610E-02 13130   0.418E-01    0.166E+00
RMM:   5    -0.828374325018E+03    0.10654E-01   -0.15336E-02 13953   0.168E-01    0.133E+00
RMM:   6    -0.828368876555E+03    0.54485E-02   -0.27491E-02 13317   0.208E-01    0.884E-01
RMM:   7    -0.828368023045E+03    0.85351E-03   -0.18603E-02 13972   0.174E-01    0.458E-01
RMM:   8    -0.828367753208E+03    0.26984E-03   -0.22602E-03 12905   0.995E-02    0.343E-01
RMM:   9    -0.828368168105E+03   -0.41490E-03   -0.96088E-04 12970   0.622E-02    0.297E-01
RMM:  10    -0.828367488014E+03    0.68009E-03   -0.12182E-03 13088   0.641E-02    0.839E-02
RMM:  11    -0.828367513957E+03   -0.25944E-04   -0.15540E-04 12357   0.258E-02    0.433E-02
RMM:  12    -0.828367512329E+03    0.16281E-05   -0.48061E-05 10648   0.149E-02    0.255E-02
RMM:  13    -0.828367538175E+03   -0.25845E-04   -0.17307E-05 10571   0.680E-03    0.224E-02
RMM:  14    -0.828367570513E+03   -0.32339E-04   -0.97986E-06  9893   0.631E-03    0.139E-02
RMM:  15    -0.828367599082E+03   -0.28569E-04   -0.75715E-06  9447   0.473E-03    0.668E-03
RMM:  16    -0.828367624236E+03   -0.25154E-04   -0.51559E-06  8990   0.373E-03    0.624E-03
RMM:  17    -0.828367642117E+03   -0.17881E-04   -0.17517E-06  7624   0.278E-03    0.409E-03
RMM:  18    -0.828367672033E+03   -0.29916E-04   -0.20264E-06  7455   0.192E-03    0.308E-03
RMM:  19    -0.828367694390E+03   -0.22356E-04   -0.22145E-06  7372   0.201E-03    0.233E-03
RMM:  20    -0.828367712409E+03   -0.18019E-04   -0.10470E-06  7184   0.140E-03    0.205E-03
RMM:  21    -0.828367727779E+03   -0.15370E-04   -0.80455E-07  6774   0.128E-03    0.207E-03
RMM:  22    -0.828367739060E+03   -0.11282E-04   -0.76926E-07  6729   0.117E-03    0.102E-03
RMM:  23    -0.828367747866E+03   -0.88059E-05   -0.53857E-07  6566   0.907E-04    0.680E-04
RMM:  24    -0.828367751010E+03   -0.31442E-05   -0.22517E-07  5909   0.806E-04    0.456E-04
RMM:  25    -0.828367754428E+03   -0.34172E-05   -0.15212E-07  5535   0.569E-04    0.414E-04
RMM:  26    -0.828367757798E+03   -0.33709E-05   -0.11392E-07  5632   0.548E-04    0.314E-04
RMM:  27    -0.828367759108E+03   -0.13093E-05   -0.68990E-08  4806   0.433E-04    0.221E-04
RMM:  28    -0.828367760764E+03   -0.16565E-05   -0.55187E-08  4491   0.379E-04    0.178E-04
RMM:  29    -0.828367762378E+03   -0.16138E-05   -0.50115E-08  4222   0.369E-04    0.187E-04
RMM:  30    -0.828367763603E+03   -0.12254E-05   -0.47986E-08  4226   0.354E-04    0.133E-04
RMM:  31    -0.828367763802E+03   -0.19884E-06   -0.28362E-08  3522   0.333E-04
  21 F= -.83750514E+03 E0= -.83745715E+03  d E =-.691441E-01  mag=     0.0000
 curvature: -18.44 expect dE=-0.284E+01 dE for cont linesearch -0.147E-01
 ZBRENT: increasing intervall
 opt :   1.1017  next Energy=  -837.528564 (dE=-0.926E-01)
 bond charge predicted
       N       E                     dE             d eps       ncg     rms          rms(c)
DAV:   1    -0.826308350740E+03    0.20594E+01   -0.32608E+02 11992   0.134E+01    0.191E+01
RMM:   2    -0.828288548603E+03   -0.19802E+01   -0.22929E+01 13672   0.468E+00    0.697E+00
RMM:   3    -0.828563033546E+03   -0.27448E+00   -0.21659E+00 14188   0.213E+00    0.622E+00
RMM:   4    -0.828396276858E+03    0.16676E+00   -0.30149E-01 13078   0.111E+00    0.504E+00
RMM:   5    -0.828348210572E+03    0.48066E-01   -0.11518E-01 14330   0.403E-01    0.418E+00
RMM:   6    -0.828322284321E+03    0.25926E-01   -0.10187E-01 13394   0.396E-01    0.283E+00
RMM:   7    -0.828317063019E+03    0.52213E-02   -0.47103E-02 13680   0.318E-01    0.187E+00
RMM:   8    -0.828316017177E+03    0.10458E-02   -0.15636E-02 13244   0.228E-01    0.139E+00
RMM:   9    -0.828317345199E+03   -0.13280E-02   -0.90946E-03 13244   0.173E-01    0.860E-01
RMM:  10    -0.828315143717E+03    0.22015E-02   -0.47710E-03 12641   0.154E-01    0.342E-01
RMM:  11    -0.828314855713E+03    0.28800E-03   -0.18593E-03 13404   0.645E-02    0.128E-01
RMM:  12    -0.828314752892E+03    0.10282E-03   -0.44676E-04 12573   0.410E-02    0.682E-02
RMM:  13    -0.828314800985E+03   -0.48093E-04   -0.17993E-04 12676   0.176E-02    0.526E-02
RMM:  14    -0.828314904940E+03   -0.10395E-03   -0.54888E-05 11156   0.142E-02    0.372E-02
RMM:  15    -0.828315008922E+03   -0.10398E-03   -0.38942E-05 11235   0.114E-02    0.186E-02
RMM:  16    -0.828315097885E+03   -0.88963E-04   -0.15132E-05 10212   0.727E-03    0.137E-02
RMM:  17    -0.828315144208E+03   -0.46322E-04   -0.70194E-06  9583   0.556E-03    0.660E-03
RMM:  18    -0.828315260495E+03   -0.11629E-03   -0.99477E-06  9890   0.392E-03    0.830E-03
RMM:  19    -0.828315333875E+03   -0.73379E-04   -0.61700E-06  9234   0.389E-03    0.839E-03
RMM:  20    -0.828315374695E+03   -0.40820E-04   -0.25728E-06  7757   0.265E-03    0.670E-03
RMM:  21    -0.828315433093E+03   -0.58398E-04   -0.42101E-06  7941   0.270E-03    0.557E-03
RMM:  22    -0.828315477850E+03   -0.44757E-04   -0.36045E-06  7922   0.250E-03    0.341E-03
RMM:  23    -0.828315519858E+03   -0.42008E-04   -0.30287E-06  7823   0.180E-03    0.187E-03
RMM:  24    -0.828315527200E+03   -0.73418E-05   -0.57332E-07  6920   0.145E-03    0.154E-03
RMM:  25    -0.828315537149E+03   -0.99495E-05   -0.38133E-07  6439   0.937E-04    0.967E-04
RMM:  26    -0.828315549250E+03   -0.12101E-04   -0.27868E-07  6444   0.882E-04    0.708E-04
RMM:  27    -0.828315555589E+03   -0.63390E-05   -0.23089E-07  6276   0.742E-04    0.461E-04
RMM:  28    -0.828315562656E+03   -0.70672E-05   -0.17054E-07  6068   0.606E-04    0.509E-04
RMM:  29    -0.828315565918E+03   -0.32616E-05   -0.10284E-07  5552   0.565E-04    0.460E-04
RMM:  30    -0.828315569105E+03   -0.31872E-05   -0.86987E-08  5211   0.442E-04    0.368E-04
RMM:  31    -0.828315571268E+03   -0.21633E-05   -0.76002E-08  5194   0.449E-04    0.158E-04
RMM:  32    -0.828315572189E+03   -0.92079E-06   -0.58625E-08  4618   0.388E-04
  22 F= -.83752015E+03 E0= -.83747247E+03  d E =-.841528E-01  mag=    -0.0000
 curvature: -29.34 expect dE=-0.945E+01 dE for cont linesearch -0.779E-02
 ZBRENT: bracketing found
 ZBRENT: interpolating
 opt :   0.8819  next Energy=  -837.526058 (dE=-0.901E-01)
 bond charge predicted
       N       E                     dE             d eps       ncg     rms          rms(c)
DAV:   1    -0.828138294801E+03    0.17728E+00   -0.44220E+01 12056   0.495E+00    0.414E+00
RMM:   2    -0.828353787384E+03   -0.21549E+00   -0.24542E+00 13388   0.162E+00    0.147E+00
RMM:   3    -0.828359883211E+03   -0.60958E-02   -0.18546E-01 14252   0.668E-01    0.137E+00
RMM:   4    -0.828354875713E+03    0.50075E-02   -0.20925E-02 12985   0.300E-01    0.118E+00
RMM:   5    -0.828350288844E+03    0.45869E-02   -0.74236E-03 13821   0.126E-01    0.959E-01
RMM:   6    -0.828346559333E+03    0.37295E-02   -0.13159E-02 13491   0.130E-01    0.608E-01
RMM:   7    -0.828346496902E+03    0.62431E-04   -0.80618E-03 14049   0.113E-01    0.349E-01
RMM:   8    -0.828346209722E+03    0.28718E-03   -0.14497E-03 12656   0.778E-02    0.239E-01
RMM:   9    -0.828346578269E+03   -0.36855E-03   -0.60743E-04 12914   0.501E-02    0.209E-01
RMM:  10    -0.828346150066E+03    0.42820E-03   -0.45038E-04 12719   0.468E-02    0.466E-02
RMM:  11    -0.828346180080E+03   -0.30015E-04   -0.13300E-04 12376   0.207E-02    0.347E-02
RMM:  12    -0.828346197676E+03   -0.17595E-04   -0.34851E-05 10708   0.117E-02    0.209E-02
RMM:  13    -0.828346217436E+03   -0.19760E-04   -0.11668E-05 10356   0.535E-03    0.160E-02
RMM:  14    -0.828346263776E+03   -0.46340E-04   -0.68981E-06  9444   0.441E-03    0.130E-02
RMM:  15    -0.828346321723E+03   -0.57947E-04   -0.10702E-05  9686   0.452E-03    0.577E-03
RMM:  16    -0.828346350661E+03   -0.28938E-04   -0.43565E-06  8478   0.331E-03    0.551E-03
RMM:  17    -0.828346368612E+03   -0.17951E-04   -0.18480E-06  7603   0.266E-03    0.411E-03
RMM:  18    -0.828346397291E+03   -0.28679E-04   -0.20325E-06  7343   0.197E-03    0.313E-03
RMM:  19    -0.828346443501E+03   -0.46210E-04   -0.65348E-06  7869   0.226E-03    0.311E-03
RMM:  20    -0.828346456282E+03   -0.12781E-04   -0.16400E-06  7222   0.187E-03    0.166E-03
RMM:  21    -0.828346465771E+03   -0.94893E-05   -0.81795E-07  6522   0.112E-03    0.198E-03
RMM:  22    -0.828346474596E+03   -0.88242E-05   -0.72588E-07  6469   0.114E-03    0.119E-03
RMM:  23    -0.828346481947E+03   -0.73519E-05   -0.53581E-07  6316   0.809E-04    0.666E-04
RMM:  24    -0.828346484801E+03   -0.28531E-05   -0.25111E-07  5883   0.752E-04    0.495E-04
RMM:  25    -0.828346487641E+03   -0.28401E-05   -0.23621E-07  5449   0.545E-04    0.490E-04
RMM:  26    -0.828346490979E+03   -0.33388E-05   -0.21487E-07  5789   0.546E-04    0.450E-04
RMM:  27    -0.828346492446E+03   -0.14667E-05   -0.13831E-07  5234   0.482E-04    0.310E-04
RMM:  28    -0.828346493465E+03   -0.10190E-05   -0.10051E-07  4389   0.417E-04    0.259E-04
RMM:  29    -0.828346493879E+03   -0.41342E-06   -0.64311E-08  3934   0.389E-04
  23 F= -.83752502E+03 E0= -.83747727E+03  d E =-.890262E-01  mag=     0.0000
 curvature: -22.26 expect dE=-0.529E+01 dE for cont linesearch -0.124E-03
 trial: gam= 0.85818 g(F)=  0.238E+00 g(S)=  0.000E+00 ort = 0.780E-02 (trialstep = 0.216E+00)
 search vector abs. value=  0.827E+01
 bond charge predicted
       N       E                     dE             d eps       ncg     rms          rms(c)
DAV:   1    -0.828211495499E+03    0.13500E+00   -0.32719E+01 11960   0.438E+00    0.348E+00
RMM:   2    -0.828375975224E+03   -0.16448E+00   -0.18634E+00 13953   0.135E+00    0.127E+00
RMM:   3    -0.828398561062E+03   -0.22586E-01   -0.13837E-01 13658   0.648E-01    0.157E+00
RMM:   4    -0.828373555723E+03    0.25005E-01   -0.32146E-02 13179   0.346E-01    0.963E-01
RMM:   5    -0.828369628213E+03    0.39275E-02   -0.77497E-03 14188   0.120E-01    0.763E-01
RMM:   6    -0.828367397243E+03    0.22310E-02   -0.13704E-02 13495   0.133E-01    0.477E-01
RMM:   7    -0.828367295974E+03    0.10127E-03   -0.58411E-03 13800   0.104E-01    0.277E-01
RMM:   8    -0.828367131759E+03    0.16422E-03   -0.81985E-04 12814   0.587E-02    0.210E-01
RMM:   9    -0.828367195318E+03   -0.63559E-04   -0.41480E-04 12755   0.422E-02    0.178E-01
RMM:  10    -0.828366967799E+03    0.22752E-03   -0.59165E-04 12880   0.401E-02    0.374E-02
RMM:  11    -0.828366973477E+03   -0.56782E-05   -0.80656E-05 11570   0.176E-02    0.271E-02
RMM:  12    -0.828366974102E+03   -0.62490E-06   -0.23727E-05 10277   0.937E-03    0.157E-02
RMM:  13    -0.828366980644E+03   -0.65417E-05   -0.72903E-06  9845   0.402E-03    0.127E-02
RMM:  14    -0.828366995182E+03   -0.14538E-04   -0.52934E-06  9575   0.462E-03    0.105E-02
RMM:  15    -0.828367015186E+03   -0.20004E-04   -0.57974E-06  9346   0.426E-03    0.418E-03
RMM:  16    -0.828367027525E+03   -0.12339E-04   -0.31076E-06  8001   0.259E-03    0.459E-03
RMM:  17    -0.828367034933E+03   -0.74085E-05   -0.11408E-06  7386   0.237E-03    0.345E-03
RMM:  18    -0.828367056534E+03   -0.21601E-04   -0.23965E-06  7501   0.193E-03    0.379E-03
RMM:  19    -0.828367068413E+03   -0.11878E-04   -0.19795E-06  7343   0.195E-03    0.208E-03
RMM:  20    -0.828367073094E+03   -0.46810E-05   -0.43058E-07  6789   0.111E-03    0.152E-03
RMM:  21    -0.828367079997E+03   -0.69035E-05   -0.40876E-07  6345   0.104E-03    0.154E-03
RMM:  22    -0.828367087585E+03   -0.75882E-05   -0.54150E-07  6607   0.101E-03    0.909E-04
RMM:  23    -0.828367092243E+03   -0.46573E-05   -0.30172E-07  6386   0.770E-04    0.530E-04
RMM:  24    -0.828367093911E+03   -0.16687E-05   -0.14821E-07  5786   0.658E-04    0.430E-04
RMM:  25    -0.828367095609E+03   -0.16977E-05   -0.93902E-08  5298   0.478E-04    0.368E-04
RMM:  26    -0.828367099180E+03   -0.35714E-05   -0.13749E-07  5396   0.468E-04    0.298E-04
RMM:  27    -0.828367100316E+03   -0.11351E-05   -0.78128E-08  4986   0.430E-04    0.219E-04
RMM:  28    -0.828367101094E+03   -0.77813E-06   -0.43130E-08  3920   0.340E-04
  24 F= -.83756801E+03 E0= -.83752035E+03  d E =-.429941E-01  mag=    -0.0000
 trial-energy change:   -0.042994  1 .order   -0.042910   -0.052866   -0.032954
 step:   0.5746(harm=  0.5746)  dis= 0.04171  next Energy=  -837.595200 (dE=-0.702E-01)
 bond charge predicted
       N       E                     dE             d eps       ncg     rms          rms(c)
DAV:   1    -0.827908193286E+03    0.45891E+00   -0.89494E+01 12072   0.729E+00    0.637E+00
RMM:   2    -0.828376827529E+03   -0.46863E+00   -0.52943E+00 13803   0.236E+00    0.240E+00
RMM:   3    -0.828457546032E+03   -0.80719E-01   -0.43370E-01 13718   0.114E+00    0.291E+00
RMM:   4    -0.828370239886E+03    0.87306E-01   -0.88366E-02 13090   0.645E-01    0.172E+00
RMM:   5    -0.828360110069E+03    0.10130E-01   -0.25469E-02 14306   0.227E-01    0.140E+00
RMM:   6    -0.828353770387E+03    0.63397E-02   -0.33118E-02 13482   0.216E-01    0.893E-01
RMM:   7    -0.828353615331E+03    0.15506E-03   -0.15143E-02 13851   0.170E-01    0.558E-01
RMM:   8    -0.828352636897E+03    0.97843E-03   -0.27084E-03 13071   0.103E-01    0.390E-01
RMM:   9    -0.828352759821E+03   -0.12292E-03   -0.13425E-03 12806   0.784E-02    0.320E-01
RMM:  10    -0.828352282336E+03    0.47748E-03   -0.12659E-03 12994   0.661E-02    0.703E-02
RMM:  11    -0.828352314380E+03   -0.32043E-04   -0.24063E-04 13276   0.259E-02    0.627E-02
RMM:  12    -0.828352274945E+03    0.39434E-04   -0.71334E-05 10922   0.168E-02    0.267E-02
RMM:  13    -0.828352286536E+03   -0.11591E-04   -0.22807E-05 10396   0.856E-03    0.212E-02
RMM:  14    -0.828352324088E+03   -0.37551E-04   -0.17722E-05 10841   0.742E-03    0.170E-02
RMM:  15    -0.828352366828E+03   -0.42740E-04   -0.16717E-05 10998   0.640E-03    0.832E-03
RMM:  16    -0.828352385526E+03   -0.18698E-04   -0.63541E-06  9464   0.407E-03    0.780E-03
RMM:  17    -0.828352402197E+03   -0.16671E-04   -0.27892E-06  8279   0.315E-03    0.539E-03
RMM:  18    -0.828352444713E+03   -0.42516E-04   -0.47560E-06  8502   0.295E-03    0.716E-03
RMM:  19    -0.828352477790E+03   -0.33077E-04   -0.58017E-06  8334   0.305E-03    0.384E-03
RMM:  20    -0.828352488906E+03   -0.11115E-04   -0.10366E-06  7266   0.179E-03    0.268E-03
RMM:  21    -0.828352504354E+03   -0.15448E-04   -0.85560E-07  6921   0.168E-03    0.263E-03
RMM:  22    -0.828352523427E+03   -0.19073E-04   -0.11762E-06  7307   0.154E-03    0.153E-03
RMM:  23    -0.828352535927E+03   -0.12500E-04   -0.83354E-07  7004   0.121E-03    0.867E-04
RMM:  24    -0.828352540385E+03   -0.44585E-05   -0.33831E-07  6390   0.100E-03    0.701E-04
RMM:  25    -0.828352544522E+03   -0.41366E-05   -0.22478E-07  5932   0.722E-04    0.665E-04
RMM:  26    -0.828352552455E+03   -0.79331E-05   -0.27406E-07  6254   0.668E-04    0.484E-04
RMM:  27    -0.828352555128E+03   -0.26727E-05   -0.14611E-07  5761   0.617E-04    0.385E-04
RMM:  28    -0.828352557138E+03   -0.20103E-05   -0.10055E-07  5176   0.476E-04    0.252E-04
RMM:  29    -0.828352559075E+03   -0.19369E-05   -0.83062E-08  5027   0.449E-04    0.250E-04
RMM:  30    -0.828352560478E+03   -0.14032E-05   -0.73572E-08  4762   0.399E-04    0.204E-04
RMM:  31    -0.828352561014E+03   -0.53541E-06   -0.49134E-08  4083   0.376E-04
  25 F= -.83759244E+03 E0= -.83754493E+03  d E =-.674219E-01  mag=    -0.0000
 curvature:  -9.73 expect dE=-0.150E+01 dE for cont linesearch -0.484E-03
 trial: gam= 0.52799 g(F)=  0.154E+00 g(S)=  0.000E+00 ort =-0.203E-01 (trialstep = 0.288E+00)
 search vector abs. value=  0.244E+01
 bond charge predicted
       N       E                     dE             d eps       ncg     rms          rms(c)
DAV:   1    -0.828278488458E+03    0.74072E-01   -0.17150E+01 11992   0.344E+00    0.263E+00
RMM:   2    -0.828367865173E+03   -0.89377E-01   -0.10192E+00 14267   0.112E+00    0.922E-01
RMM:   3    -0.828380336602E+03   -0.12471E-01   -0.72404E-02 13954   0.467E-01    0.117E+00
RMM:   4    -0.828365527641E+03    0.14809E-01   -0.16642E-02 13151   0.269E-01    0.674E-01
RMM:   5    -0.828362819941E+03    0.27077E-02   -0.89590E-03 13470   0.133E-01    0.440E-01
RMM:   6    -0.828362292333E+03    0.52761E-03   -0.91619E-03 13536   0.145E-01    0.244E-01
RMM:   7    -0.828362271919E+03    0.20414E-04   -0.18272E-03 13690   0.762E-02    0.149E-01
RMM:   8    -0.828362167618E+03    0.10430E-03   -0.35331E-04 12419   0.400E-02    0.117E-01
RMM:   9    -0.828362190654E+03   -0.23036E-04   -0.54067E-04 12835   0.352E-02    0.123E-01
RMM:  10    -0.828362016593E+03    0.17406E-03   -0.67232E-04 13594   0.354E-02    0.279E-02
RMM:  11    -0.828362004009E+03    0.12584E-04   -0.65233E-05 11619   0.125E-02    0.216E-02
