<?xml version="1.0" encoding="ISO-8859-1"?>
<modeling>
 <generator>
  <i name="program" type="string">vasp </i>
  <i name="version" type="string">5.4.4.18Apr17-6-g9f103f2a35  </i>
  <i name="subversion" type="string">(build Apr 28 2017 10:40:22) complex            parallel </i>
  <i name="platform" type="string">Intel-16.0.3.210-OMPI-1.10.2 </i>
  <i name="date" type="string">2019 11 18 </i>
  <i name="time" type="string">11:54:45 </i>
 </generator>
 <incar>
  <i type="string" name="SYSTEM"> membrane</i>
  <i type="int" name="ISTART">     0</i>
  <i type="string" name="PREC">normal</i>
  <i type="string" name="ALGO"> Fast</i>
  <i type="int" name="ISPIN">     2</i>
  <i type="int" name="ICHARG">     2</i>
  <i type="int" name="IBRION">     2</i>
  <i name="EDIFF">      0.00000100</i>
  <i name="EDIFFG">     -0.01000000</i>
  <i type="int" name="NSW">  1000</i>
  <i name="ENCUT">    500.00000000</i>
  <i type="logical" name="LPLANE"> T  </i>
  <i type="int" name="ISMEAR">     0</i>
  <i name="SIGMA">      0.05000000</i>
  <i type="logical" name="LWAVE"> F  </i>
  <i type="logical" name="LCHARG"> F  </i>
  <v type="int" name="KPOINT_BSE">    -1     0     0     0</v>
 </incar>
 <structure name="primitive_cell" >
  <crystal>
   <varray name="basis" >
    <v>      26.26650047       0.00000000       0.00000000 </v>
    <v>     -13.13288029      22.74974710       0.00000000 </v>
    <v>       0.00000000       0.00000000      20.20179939 </v>
   </varray>
   <i name="volume">  12071.71134534 </i>
   <varray name="rec_basis" >
    <v>       0.03807131       0.02197765       0.00000000 </v>
    <v>       0.00000000       0.04395653       0.00000000 </v>
    <v>       0.00000000       0.00000000       0.04950054 </v>
   </varray>
  </crystal>
  <varray name="positions" >
   <v>       0.02978548       0.30215638       0.49997990 </v>
   <v>       0.06083569       0.36429199       0.49997963 </v>
   <v>      -0.03238042       0.27105547       0.49997873 </v>
   <v>       0.06780921       0.26412776      -0.49999342 </v>
   <v>      -0.06341259       0.30217835       0.49999748 </v>
   <v>       0.02977905       0.39539296       0.49997859 </v>
   <v>       0.13689557       0.40231835      -0.49999460 </v>
   <v>      -0.07041914       0.19501944       0.49995055 </v>
   <v>      -0.03237634       0.36427844       0.49999896 </v>
   <v>      -0.00128913       0.16657185      -0.49993401 </v>
   <v>       0.16542679       0.33321545      -0.49991956 </v>
   <v>       0.06777017       0.47141246       0.49995023 </v>
   <v>      -0.13957627       0.26411306       0.49998695 </v>
   <v>      -0.07048006       0.40231683       0.49999429 </v>
   <v>       0.16535993       0.49987868      -0.49993505 </v>
   <v>      -0.16797811       0.16661168      -0.49970101 </v>
   <v>       0.06787270       0.13812325       0.49996207 </v>
   <v>       0.19398727       0.26413215      -0.49999005 </v>
   <v>      -0.07036733       0.06900803      -0.49997841 </v>
   <v>       0.26307085       0.40230402      -0.49998830 </v>
   <v>      -0.16791226       0.33321446      -0.49869225 </v>
   <v>      -0.00136995       0.49983222      -0.49971384 </v>
   <v>      -0.19635403       0.06906998       0.49995550 </v>
   <v>       0.26296153      -0.47169527       0.49996177 </v>
   <v>       0.16545446       0.16656971      -0.49992799 </v>
   <v>       0.02982838       0.06203136       0.49999346 </v>
   <v>       0.27004046       0.30216274       0.49997717 </v>
   <v>      -0.03231044       0.03095297       0.49999894 </v>
   <v>       0.30110021       0.36429962       0.49997749 </v>
   <v>      -0.26547171       0.13822396       0.49995558 </v>
   <v>       0.19384425      -0.40256876      -0.49997867 </v>
   <v>      -0.16792277      -0.00008581      -0.49993645 </v>
   <v>       0.33211397       0.49987893      -0.49993193 </v>
   <v>       0.06780355      -0.40263036       0.49995862 </v>
   <v>      -0.26554656       0.26423227      -0.49958567 </v>
   <v>      -0.27239455       0.03103629       0.49997926 </v>
   <v>       0.06090864       0.03096055       0.49999975 </v>
   <v>       0.30104989      -0.39556940       0.49999314 </v>
   <v>       0.30109348       0.27105574       0.49997602 </v>
   <v>      -0.07047927      -0.47178199       0.49995599 </v>
   <v>      -0.19654335       0.40223645      -0.49957636 </v>
   <v>      -0.30350959       0.06207702       0.49998686 </v>
   <v>      -0.06336838      -0.03117058       0.49999329 </v>
   <v>       0.26996655      -0.36450490       0.49999953 </v>
   <v>       0.36325673       0.39539219       0.49997631 </v>
   <v>       0.13702433       0.06902053      -0.49997378 </v>
   <v>       0.26306709       0.19502114       0.49995325 </v>
   <v>      -0.33456777       0.16658903      -0.49886697 </v>
   <v>       0.16537525      -0.33348402      -0.49993659 </v>
   <v>      -0.13947338      -0.06923161       0.49996403 </v>
   <v>       0.40126404       0.47140812       0.49995344 </v>
   <v>      -0.30346191       0.30210428      -0.49910524 </v>
   <v>       0.02979248      -0.36458549       0.49997855 </v>
   <v>      -0.30349004      -0.03111155       0.49998308 </v>
   <v>       0.02983950      -0.03117274       0.49999272 </v>
   <v>       0.36318708      -0.36450253       0.49999964 </v>
   <v>       0.36324907       0.30216902       0.49998968 </v>
   <v>      -0.27235616       0.36433397      -0.49909637 </v>
   <v>      -0.03236266      -0.39562423       0.49998688 </v>
   <v>      -0.03230448      -0.06224859       0.49999951 </v>
   <v>       0.39429174       0.36427519       0.49999126 </v>
   <v>      -0.26546436      -0.06915107      -0.49998848 </v>
   <v>       0.40123014      -0.40256960      -0.49997004 </v>
   <v>      -0.16793368       0.49988499      -0.49887164 </v>
   <v>      -0.36562750       0.03101824       0.49998867 </v>
   <v>       0.30103167      -0.30237020       0.49999418 </v>
   <v>      -0.27879849       0.31752345      -0.29601062 </v>
   <v>      -0.40367215       0.06913882       0.49996837 </v>
   <v>       0.26295963      -0.26431991       0.49996612 </v>
   <v>      -0.36568610       0.27100272      -0.49907981 </v>
   <v>       0.06083410      -0.30244217       0.49998203 </v>
   <v>      -0.36563449      -0.06217840       0.49998221 </v>
   <v>       0.39424221      -0.30238082       0.49999252 </v>
   <v>       0.16546854      -0.00008058      -0.49992443 </v>
   <v>       0.33219139       0.16662081      -0.49963254 </v>
   <v>      -0.06341476      -0.36456335       0.49998687 </v>
   <v>      -0.30347087       0.39543635      -0.49906637 </v>
   <v>      -0.39673168      -0.03112259       0.49997778 </v>
   <v>       0.36316983      -0.27130882       0.49999910 </v>
   <v>      -0.40355518       0.19525487      -0.49951679 </v>
   <v>       0.13688836      -0.26440921      -0.49999033 </v>
   <v>       0.06790901      -0.06924385       0.49995942 </v>
   <v>       0.40135429       0.26411298       0.49996318 </v>
   <v>      -0.07036594      -0.13835180      -0.49997358 </v>
   <v>       0.47045524       0.40232198       0.49996427 </v>
   <v>       0.26305247       0.06907605       0.49993933 </v>
   <v>      -0.26557314       0.47122258      -0.49944468 </v>
   <v>      -0.13957689      -0.40268062       0.49996380 </v>
   <v>      -0.16794379      -0.16682716      -0.49992713 </v>
   <v>       0.49880083       0.49982331      -0.49964060 </v>
   <v>      -0.33459294      -0.16678165      -0.49991784 </v>
   <v>       0.49876979      -0.33348883      -0.49992845 </v>
   <v>       0.02976190      -0.27136790       0.49998199 </v>
   <v>      -0.39678635       0.30211158      -0.49905357 </v>
   <v>      -0.03238971      -0.30242525       0.49997722 </v>
   <v>      -0.36568376       0.36431919      -0.49904716 </v>
   <v>      -0.47276069      -0.40262720       0.49994322 </v>
   <v>      -0.26550109      -0.19535309      -0.49999453 </v>
   <v>      -0.34406589       0.33456595      -0.25247043 </v>
   <v>      -0.40366529      -0.13822249      -0.49998893 </v>
   <v>       0.47034060      -0.26432178       0.49996181 </v>
   <v>      -0.47276572      -0.06912445       0.49995033 </v>
   <v>       0.40120321      -0.19520477      -0.49997704 </v>
   <v>      -0.00129473      -0.16682404      -0.49993248 </v>
   <v>       0.49879648       0.33321220      -0.49862538 </v>
   <v>      -0.32896790       0.41836788      -0.28895833 </v>
   <v>       0.49882459       0.00001837      -0.49969260 </v>
   <v>       0.33211056      -0.16672560      -0.49992971 </v>
   <v>       0.30107743       0.03103907       0.49997763 </v>
   <v>      -0.33896641       0.33546676      -0.14643248 </v>
   <v>      -0.42998438       0.26671249      -0.28469470 </v>
   <v>       0.19398370      -0.06913062      -0.49999369 </v>
   <v>       0.40132477       0.13823685       0.49998044 </v>
   <v>       0.49878088       0.16660044      -0.49848169 </v>
   <v>       0.16540427      -0.16677410      -0.49991831 </v>
   <v>      -0.47253357       0.26423933      -0.49943195 </v>
   <v>       0.06777437      -0.19533532      -0.49998582 </v>
   <v>       0.47044100       0.06914339       0.49997996 </v>
   <v>       0.26306953      -0.13820494      -0.49999448 </v>
   <v>      -0.40356841       0.40222992      -0.49949753 </v>
   <v>      -0.07043050      -0.26442330       0.49994575 </v>
   <v>      -0.16797520      -0.33357537      -0.49965766 </v>
   <v>      -0.33456566       0.49986937      -0.49832972 </v>
   <v>      -0.40368354      -0.47181380       0.49999407 </v>
   <v>      -0.19636729      -0.26442903       0.49994556 </v>
   <v>      -0.39673737      -0.36459157       0.49997672 </v>
   <v>       0.27002825      -0.03110619       0.49997748 </v>
   <v>       0.36323305       0.06208529       0.49999981 </v>
   <v>      -0.30350726      -0.27138772       0.49997408 </v>
   <v>       0.49875158      -0.16672734      -0.49993581 </v>
   <v>      -0.26544417      -0.40270139       0.49999292 </v>
   <v>      -0.40366284      -0.26443936      -0.49999356 </v>
   <v>      -0.36561967      -0.39562219      -0.49999237 </v>
   <v>      -0.27239818      -0.30242818       0.49997774 </v>
   <v>      -0.36564783      -0.30244754       0.49997349 </v>
   <v>       0.40129035      -0.06912333       0.49994892 </v>
   <v>       0.39429803       0.03102295      -0.49999894 </v>
   <v>       0.30111121      -0.06217606       0.49997772 </v>
   <v>       0.36326551      -0.03111501       0.49997793 </v>
   <v>      -0.30349834      -0.36457022      -0.49999224 </v>
  </varray>
 </structure>
 <varray name="primitive_index" >
  <v type="int" >        1 </v>
  <v type="int" >       22 </v>
  <v type="int" >       17 </v>
  <v type="int" >      109 </v>
  <v type="int" >       15 </v>
  <v type="int" >       20 </v>
  <v type="int" >       76 </v>
  <v type="int" >       71 </v>
  <v type="int" >       36 </v>
  <v type="int" >      115 </v>
  <v type="int" >      138 </v>
  <v type="int" >       74 </v>
  <v type="int" >       69 </v>
  <v type="int" >       90 </v>
  <v type="int" >      119 </v>
  <v type="int" >      116 </v>
  <v type="int" >       56 </v>
  <v type="int" >       57 </v>
  <v type="int" >       72 </v>
  <v type="int" >       78 </v>
  <v type="int" >      117 </v>
  <v type="int" >      124 </v>
  <v type="int" >       70 </v>
  <v type="int" >       77 </v>
  <v type="int" >      137 </v>
  <v type="int" >        2 </v>
  <v type="int" >        3 </v>
  <v type="int" >       18 </v>
  <v type="int" >       24 </v>
  <v type="int" >       68 </v>
  <v type="int" >       75 </v>
  <v type="int" >      135 </v>
  <v type="int" >      118 </v>
  <v type="int" >       73 </v>
  <v type="int" >       67 </v>
  <v type="int" >       16 </v>
  <v type="int" >        4 </v>
  <v type="int" >       23 </v>
  <v type="int" >        5 </v>
  <v type="int" >       89 </v>
  <v type="int" >       88 </v>
  <v type="int" >       14 </v>
  <v type="int" >       51 </v>
  <v type="int" >       21 </v>
  <v type="int" >       26 </v>
  <v type="int" >       58 </v>
  <v type="int" >       59 </v>
  <v type="int" >      139 </v>
  <v type="int" >      120 </v>
  <v type="int" >      105 </v>
  <v type="int" >       80 </v>
  <v type="int" >       13 </v>
  <v type="int" >       19 </v>
  <v type="int" >       49 </v>
  <v type="int" >       37 </v>
  <v type="int" >       25 </v>
  <v type="int" >        7 </v>
  <v type="int" >       34 </v>
  <v type="int" >       35 </v>
  <v type="int" >       53 </v>
  <v type="int" >       28 </v>
  <v type="int" >      103 </v>
  <v type="int" >       79 </v>
  <v type="int" >      125 </v>
  <v type="int" >       12 </v>
  <v type="int" >       42 </v>
  <v type="int" >      110 </v>
  <v type="int" >       66 </v>
  <v type="int" >       96 </v>
  <v type="int" >       11 </v>
  <v type="int" >       40 </v>
  <v type="int" >       47 </v>
  <v type="int" >       46 </v>
  <v type="int" >      129 </v>
  <v type="int" >      136 </v>
  <v type="int" >       33 </v>
  <v type="int" >       32 </v>
  <v type="int" >       45 </v>
  <v type="int" >       44 </v>
  <v type="int" >       65 </v>
  <v type="int" >       94 </v>
  <v type="int" >       91 </v>
  <v type="int" >       61 </v>
  <v type="int" >      107 </v>
  <v type="int" >       82 </v>
  <v type="int" >       60 </v>
  <v type="int" >       86 </v>
  <v type="int" >       87 </v>
  <v type="int" >      134 </v>
  <v type="int" >      122 </v>
  <v type="int" >      130 </v>
  <v type="int" >      123 </v>
  <v type="int" >       38 </v>
  <v type="int" >        9 </v>
  <v type="int" >       54 </v>
  <v type="int" >       30 </v>
  <v type="int" >       81 </v>
  <v type="int" >      104 </v>
  <v type="int" >       55 </v>
  <v type="int" >      101 </v>
  <v type="int" >      100 </v>
  <v type="int" >       99 </v>
  <v type="int" >       98 </v>
  <v type="int" >      133 </v>
  <v type="int" >      114 </v>
  <v type="int" >      111 </v>
  <v type="int" >      132 </v>
  <v type="int" >      127 </v>
  <v type="int" >        6 </v>
  <v type="int" >      113 </v>
  <v type="int" >      112 </v>
  <v type="int" >       93 </v>
  <v type="int" >       62 </v>
  <v type="int" >      140 </v>
  <v type="int" >      128 </v>
  <v type="int" >       63 </v>
  <v type="int" >       92 </v>
  <v type="int" >       64 </v>
  <v type="int" >       95 </v>
  <v type="int" >       84 </v>
  <v type="int" >      108 </v>
  <v type="int" >      126 </v>
  <v type="int" >      121 </v>
  <v type="int" >       83 </v>
  <v type="int" >      106 </v>
  <v type="int" >       27 </v>
  <v type="int" >       39 </v>
  <v type="int" >        8 </v>
  <v type="int" >       50 </v>
  <v type="int" >      131 </v>
  <v type="int" >       85 </v>
  <v type="int" >      102 </v>
  <v type="int" >       29 </v>
  <v type="int" >       52 </v>
  <v type="int" >       48 </v>
  <v type="int" >       97 </v>
  <v type="int" >       10 </v>
  <v type="int" >       41 </v>
  <v type="int" >       43 </v>
  <v type="int" >       31 </v>
 </varray>
 <kpoints>
  <generation param="Gamma">
   <v type="int" name="divisions">       3        3        1 </v>
   <v name="usershift">      0.00000000       0.00000000       0.00000000 </v>
   <v name="genvec1">      0.33333333       0.00000000       0.00000000 </v>
   <v name="genvec2">      0.00000000       0.33333333       0.00000000 </v>
   <v name="genvec3">      0.00000000       0.00000000       1.00000000 </v>
   <v name="shift">      0.00000000       0.00000000       0.00000000 </v>
  </generation>
  <varray name="kpointlist" >
   <v>       0.00000000       0.00000000       0.00000000 </v>
   <v>       0.33333333       0.00000000       0.00000000 </v>
   <v>       0.00000000       0.33333333       0.00000000 </v>
   <v>       0.33333333       0.33333333       0.00000000 </v>
   <v>      -0.33333333       0.33333333       0.00000000 </v>
  </varray>
  <varray name="weights" >
   <v>       0.11111111 </v>
   <v>       0.22222222 </v>
   <v>       0.22222222 </v>
   <v>       0.22222222 </v>
   <v>       0.22222222 </v>
  </varray>
 </kpoints>
 <parameters>
  <separator name="general" >
   <i type="string" name="SYSTEM">membrane</i>
   <i type="logical" name="LCOMPAT"> F  </i>
  </separator>
  <separator name="electronic" >
   <i type="string" name="PREC">normal</i>
   <i name="ENMAX">    500.00000000</i>
   <i name="ENAUG">    644.87300000</i>
   <i name="EDIFF">      0.00000100</i>
   <i type="int" name="IALGO">    68</i>
   <i type="int" name="IWAVPR">    11</i>
   <i type="int" name="NBANDS">   590</i>
   <i name="NELECT">    868.00000000</i>
   <i type="int" name="TURBO">     0</i>
   <i type="int" name="IRESTART">     0</i>
   <i type="int" name="NREBOOT">     0</i>
   <i type="int" name="NMIN">     0</i>
   <i name="EREF">      0.00000000</i>
   <separator name="electronic smearing" >
    <i type="int" name="ISMEAR">     0</i>
    <i name="SIGMA">      0.05000000</i>
    <i name="KSPACING">      0.50000000</i>
    <i type="logical" name="KGAMMA"> T  </i>
   </separator>
   <separator name="electronic projectors" >
    <i type="logical" name="LREAL"> F  </i>
    <v name="ROPT">      0.00000000      0.00000000      0.00000000      0.00000000      0.00000000</v>
    <i type="int" name="LMAXPAW">  -100</i>
    <i type="int" name="LMAXMIX">     2</i>
    <i type="logical" name="NLSPLINE"> F  </i>
   </separator>
   <separator name="electronic startup" >
    <i type="int" name="ISTART">     0</i>
    <i type="int" name="ICHARG">     2</i>
    <i type="int" name="INIWAV">     1</i>
   </separator>
   <separator name="electronic spin" >
    <i type="int" name="ISPIN">     2</i>
    <i type="logical" name="LNONCOLLINEAR"> F  </i>
    <v name="MAGMOM">      1.00000000      1.00000000      1.00000000      1.00000000      1.00000000      1.00000000      1.00000000      1.00000000      1.00000000      1.00000000      1.00000000      1.00000000      1.00000000      1.00000000      1.00000000      1.00000000      1.00000000      1.00000000      1.00000000      1.00000000
      1.00000000      1.00000000      1.00000000      1.00000000      1.00000000      1.00000000      1.00000000      1.00000000      1.00000000      1.00000000      1.00000000      1.00000000      1.00000000      1.00000000      1.00000000      1.00000000      1.00000000      1.00000000      1.00000000      1.00000000
      1.00000000      1.00000000      1.00000000      1.00000000      1.00000000      1.00000000      1.00000000      1.00000000      1.00000000      1.00000000      1.00000000      1.00000000      1.00000000      1.00000000      1.00000000      1.00000000      1.00000000      1.00000000      1.00000000      1.00000000
      1.00000000      1.00000000      1.00000000      1.00000000      1.00000000      1.00000000      1.00000000      1.00000000      1.00000000      1.00000000      1.00000000      1.00000000      1.00000000      1.00000000      1.00000000      1.00000000      1.00000000      1.00000000      1.00000000      1.00000000
      1.00000000      1.00000000      1.00000000      1.00000000      1.00000000      1.00000000      1.00000000      1.00000000      1.00000000      1.00000000      1.00000000      1.00000000      1.00000000      1.00000000      1.00000000      1.00000000      1.00000000      1.00000000      1.00000000      1.00000000
      1.00000000      1.00000000      1.00000000      1.00000000      1.00000000      1.00000000      1.00000000      1.00000000      1.00000000      1.00000000      1.00000000      1.00000000      1.00000000      1.00000000      1.00000000      1.00000000      1.00000000      1.00000000      1.00000000      1.00000000
      1.00000000      1.00000000      1.00000000      1.00000000      1.00000000      1.00000000      1.00000000      1.00000000      1.00000000      1.00000000      1.00000000      1.00000000      1.00000000      1.00000000      1.00000000      1.00000000      1.00000000      1.00000000      1.00000000      1.00000000
</v>
    <i name="NUPDOWN">     -1.00000000</i>
    <i type="logical" name="LSORBIT"> F  </i>
    <v name="SAXIS">      0.00000000      0.00000000      1.00000000</v>
    <i type="logical" name="LSPIRAL"> F  </i>
    <v name="QSPIRAL">      0.00000000      0.00000000      0.00000000</v>
    <i type="logical" name="LZEROZ"> F  </i>
   </separator>
   <separator name="electronic exchange-correlation" >
    <i type="logical" name="LASPH"> F  </i>
    <i type="logical" name="LMETAGGA"> F  </i>
   </separator>
   <separator name="electronic convergence" >
    <i type="int" name="NELM">    60</i>
    <i type="int" name="NELMDL">    -5</i>
    <i type="int" name="NELMIN">     2</i>
    <i name="ENINI">    500.00000000</i>
    <separator name="electronic convergence detail" >
     <i type="logical" name="LDIAG"> T  </i>
     <i type="logical" name="LSUBROT"> F  </i>
     <i name="WEIMIN">      0.00100000</i>
     <i name="EBREAK">      0.00000000</i>
     <i name="DEPER">      0.30000000</i>
     <i type="int" name="NRMM">     4</i>
     <i name="TIME">      0.40000000</i>
    </separator>
   </separator>
   <separator name="electronic mixer" >
    <i name="AMIX">      0.40000000</i>
    <i name="BMIX">      1.00000000</i>
    <i name="AMIN">      0.10000000</i>
    <i name="AMIX_MAG">      1.60000000</i>
    <i name="BMIX_MAG">      1.00000000</i>
    <separator name="electronic mixer details" >
     <i type="int" name="IMIX">     4</i>
     <i type="logical" name="MIXFIRST"> F  </i>
     <i type="int" name="MAXMIX">   -45</i>
     <i name="WC">    100.00000000</i>
     <i type="int" name="INIMIX">     1</i>
     <i type="int" name="MIXPRE">     1</i>
     <i type="int" name="MREMOVE">     5</i>
    </separator>
   </separator>
   <separator name="electronic dipolcorrection" >
    <i type="logical" name="LDIPOL"> F  </i>
    <i type="logical" name="LMONO"> F  </i>
    <i type="int" name="IDIPOL">     0</i>
    <i name="EPSILON">      1.00000000</i>
    <v name="DIPOL">   -100.00000000   -100.00000000   -100.00000000</v>
    <i name="EFIELD">      0.00000000</i>
   </separator>
  </separator>
  <separator name="grids" >
   <i type="int" name="NGX">   144</i>
   <i type="int" name="NGY">   144</i>
   <i type="int" name="NGZ">   112</i>
   <i type="int" name="NGXF">   288</i>
   <i type="int" name="NGYF">   288</i>
   <i type="int" name="NGZF">   224</i>
   <i type="logical" name="ADDGRID"> F  </i>
  </separator>
  <separator name="ionic" >
   <i type="int" name="NSW">  1000</i>
   <i type="int" name="IBRION">     2</i>
   <i type="int" name="MDALGO">     0</i>
   <i type="int" name="ISIF">     2</i>
   <i name="PSTRESS">      0.00000000</i>
   <i name="EDIFFG">     -0.01000000</i>
   <i type="int" name="NFREE">     1</i>
   <i name="POTIM">      0.50000000</i>
   <i name="SMASS">     -3.00000000</i>
   <i name="SCALEE">      1.00000000</i>
  </separator>
  <separator name="ionic md" >
   <i name="TEBEG">      0.00010000</i>
   <i name="TEEND">      0.00010000</i>
   <i type="int" name="NBLOCK">     1</i>
   <i type="int" name="KBLOCK">  1000</i>
   <i type="int" name="NPACO">   256</i>
   <i name="APACO">     16.00000000</i>
  </separator>
  <separator name="symmetry" >
   <i type="int" name="ISYM">     2</i>
   <i name="SYMPREC">      0.00001000</i>
  </separator>
  <separator name="dos" >
   <i type="int" name="LORBIT">     0</i>
   <v name="RWIGS">     -1.00000000     -1.00000000     -1.00000000     -1.00000000     -1.00000000</v>
   <i type="int" name="NEDOS">   301</i>
   <i name="EMIN">     10.00000000</i>
   <i name="EMAX">    -10.00000000</i>
   <i name="EFERMI">      0.00000000</i>
  </separator>
  <separator name="writing" >
   <i type="int" name="NWRITE">     2</i>
   <i type="logical" name="LWAVE"> F  </i>
   <i type="logical" name="LDOWNSAMPLE"> F  </i>
   <i type="logical" name="LCHARG"> F  </i>
   <i type="logical" name="LPARD"> F  </i>
   <i type="logical" name="LVTOT"> F  </i>
   <i type="logical" name="LVHAR"> F  </i>
   <i type="logical" name="LELF"> F  </i>
   <i type="logical" name="LOPTICS"> F  </i>
   <v name="STM">      0.00000000      0.00000000      0.00000000      0.00000000      0.00000000      0.00000000      0.00000000</v>
  </separator>
  <separator name="performance" >
   <i type="int" name="NPAR">     2</i>
   <i type="int" name="NSIM">     4</i>
   <i type="int" name="NBLK">    -1</i>
   <i type="logical" name="LPLANE"> T  </i>
   <i type="logical" name="LSCALAPACK"> T  </i>
   <i type="logical" name="LSCAAWARE"> F  </i>
   <i type="logical" name="LSCALU"> F  </i>
   <i type="logical" name="LASYNC"> F  </i>
   <i type="logical" name="LORBITALREAL"> F  </i>
  </separator>
  <separator name="miscellaneous" >
   <i type="int" name="IDIOT">     3</i>
   <i type="int" name="ISPECIAL">     0</i>
   <i type="logical" name="LMUSIC"> F  </i>
   <v name="POMASS">     12.01100000     26.98100000     32.06600000     35.45300000     63.54600000</v>
   <v name="DARWINR">      0.00000000      0.00000000      0.00000000      0.00000000      0.00000000</v>
   <v name="DARWINV">      1.00000000      1.00000000      1.00000000      1.00000000      1.00000000</v>
   <i type="logical" name="LCORR"> T  </i>
  </separator>
  <i type="logical" name="GGA_COMPAT"> T  </i>
  <i type="logical" name="LBERRY"> F  </i>
  <i type="int" name="ICORELEVEL">     0</i>
  <i type="logical" name="LDAU"> F  </i>
  <i type="int" name="I_CONSTRAINED_M">     0</i>
  <separator name="electronic exchange-correlation" >
   <i type="string" name="GGA">--</i>
   <i type="int" name="VOSKOWN">     0</i>
   <i type="logical" name="LHFCALC"> F  </i>
   <i type="string" name="PRECFOCK"></i>
   <i type="logical" name="LSYMGRAD"> F  </i>
   <i type="logical" name="LHFONE"> F  </i>
   <i type="logical" name="LRHFCALC"> F  </i>
   <i type="logical" name="LTHOMAS"> F  </i>
   <i type="logical" name="LMODELHF"> F  </i>
   <i name="ENCUT4O">     -1.00000000</i>
   <i type="int" name="EXXOEP">     0</i>
   <i type="int" name="FOURORBIT">     0</i>
   <i name="AEXX">      0.00000000</i>
   <i name="HFALPHA">      0.00000000</i>
   <i name="MCALPHA">      0.00000000</i>
   <i name="ALDAX">      1.00000000</i>
   <i name="AGGAX">      1.00000000</i>
   <i name="ALDAC">      1.00000000</i>
   <i name="AGGAC">      1.00000000</i>
   <i type="int" name="NKREDX">     1</i>
   <i type="int" name="NKREDY">     1</i>
   <i type="int" name="NKREDZ">     1</i>
   <i type="logical" name="SHIFTRED"> F  </i>
   <i type="logical" name="ODDONLY"> F  </i>
   <i type="logical" name="EVENONLY"> F  </i>
   <i type="int" name="LMAXFOCK">     0</i>
   <i type="int" name="NMAXFOCKAE">     0</i>
   <i type="logical" name="LFOCKAEDFT"> F  </i>
   <i name="HFSCREEN">      0.00000000</i>
   <i name="HFSCREENC">      0.00000000</i>
   <i type="int" name="NBANDSGWLOW">     0</i>
  </separator>
  <separator name="vdW DFT" >
   <i type="logical" name="LUSE_VDW"> F  </i>
   <i name="Zab_VDW">     -0.84910000</i>
   <i name="PARAM1">      0.12340000</i>
   <i name="PARAM2">      1.00000000</i>
   <i name="PARAM3">      0.00000000</i>
  </separator>
  <separator name="model GW" >
   <i type="int" name="MODEL_GW">     0</i>
   <i name="MODEL_EPS0">     51.73590577</i>
   <i name="MODEL_ALPHA">      1.00000000</i>
  </separator>
  <separator name="linear response parameters" >
   <i type="logical" name="LEPSILON"> F  </i>
   <i type="logical" name="LRPA"> F  </i>
   <i type="logical" name="LNABLA"> F  </i>
   <i type="logical" name="LVEL"> F  </i>
   <i type="int" name="KINTER">     0</i>
   <i name="CSHIFT">      0.10000000</i>
   <i name="OMEGAMAX">     -1.00000000</i>
   <i name="DEG_THRESHOLD">      0.00200000</i>
   <i name="RTIME">     -0.10000000</i>
   <i name="WPLASMAI">      0.00000000</i>
   <v name="DFIELD">      0.00000000      0.00000000      0.00000000</v>
   <v name="WPLASMA">      0.00000000      0.00000000      0.00000000      0.00000000      0.00000000      0.00000000      0.00000000      0.00000000      0.00000000</v>
  </separator>
  <separator name="orbital magnetization" >
   <i type="logical" name="NUCIND"> F  </i>
   <v name="MAGPOS">      0.00000000      0.00000000      0.00000000</v>
   <i type="logical" name="LNICSALL"> T  </i>
   <i type="logical" name="ORBITALMAG"> F  </i>
   <i type="logical" name="LMAGBLOCH"> F  </i>
   <i type="logical" name="LCHIMAG"> F  </i>
   <i type="logical" name="LGAUGE"> T  </i>
   <i type="int" name="MAGATOM">     0</i>
   <v name="MAGDIPOL">      0.00000000      0.00000000      0.00000000</v>
   <v name="AVECCONST">      0.00000000      0.00000000      0.00000000</v>
  </separator>
  <separator name="response functions" >
   <i type="logical" name="LADDER"> F  </i>
   <i type="logical" name="LRPAFORCE"> F  </i>
   <i type="logical" name="LFXC"> F  </i>
   <i type="logical" name="LHARTREE"> T  </i>
   <i type="int" name="IBSE">     0</i>
   <v type="int" name="KPOINT">    -1     0     0     0</v>
   <i type="logical" name="LTCTE"> F  </i>
   <i type="logical" name="LTETE"> F  </i>
   <i type="logical" name="LTRIPLET"> F  </i>
   <i type="logical" name="LFXCEPS"> F  </i>
   <i type="logical" name="LFXHEG"> F  </i>
   <i type="int" name="NATURALO">     2</i>
   <i type="logical" name="L2ORDER"> F  </i>
   <i type="logical" name="LMP2LT"> F  </i>
   <i type="logical" name="LUSEW"> F  </i>
   <i name="ENCUTGW">     -2.00000000</i>
   <i name="ENCUTGWSOFT">     -2.00000000</i>
   <i name="ENCUTLF">     -1.00000000</i>
   <i type="int" name="LMAXMP2">    -1</i>
   <i name="SCISSOR">      0.00000000</i>
   <i type="int" name="NOMEGA">     0</i>
   <i type="int" name="NOMEGAR">     0</i>
   <i type="int" name="NBANDSGW">    -1</i>
   <i type="int" name="NBANDSO">    -1</i>
   <i type="int" name="NBANDSV">    -1</i>
   <i type="int" name="NELM">     1</i>
   <i type="int" name="NELMHF">     1</i>
   <i type="int" name="DIM">     3</i>
   <i type="int" name="ANTIRES">     0</i>
   <i name="OMEGAMAX">    -30.00000000</i>
   <i name="OMEGAMIN">    -30.00000000</i>
   <i name="OMEGATL">   -200.00000000</i>
   <i type="int" name="OMEGAGRID">   140</i>
   <i name="CSHIFT">     -0.10000000</i>
   <i type="logical" name="SELFENERGY"> F  </i>
   <i type="logical" name="LSPECTRAL"> F  </i>
   <i type="logical" name="LSPECTRALGW"> F  </i>
   <i type="logical" name="LSINGLES"> F  </i>
   <i type="logical" name="LFERMIGW"> F  </i>
   <i type="logical" name="ODDONLYGW"> F  </i>
   <i type="logical" name="EVENONLYGW"> F  </i>
   <i type="int" name="NKREDLFX">     1</i>
   <i type="int" name="NKREDLFY">     1</i>
   <i type="int" name="NKREDLFZ">     1</i>
   <i type="int" name="MAXMEM">  2800</i>
   <i type="int" name="TELESCOPE">     0</i>
   <i type="int" name="TAUPAR">     1</i>
   <i type="int" name="OMEGAPAR">    -1</i>
   <i name="LAMBDA">      1.00000000</i>
  </separator>
  <separator name="External order field" >
   <i name="OFIELD_KAPPA">      0.00000000</i>
   <v name="OFIELD_K">      0.00000000      0.00000000      0.00000000</v>
   <i name="OFIELD_Q6_NEAR">      0.00000000</i>
   <i name="OFIELD_Q6_FAR">      0.00000000</i>
   <i name="OFIELD_A">      0.00000000</i>
  </separator>
 </parameters>
 <atominfo>
  <atoms>     140 </atoms>
  <types>       5 </types>
  <array name="atoms" >
   <dimension dim="1">ion</dimension>
   <field type="string">element</field>
   <field type="int">atomtype</field>
   <set>
    <rc><c>C </c><c>   1</c></rc>
    <rc><c>C </c><c>   1</c></rc>
    <rc><c>C </c><c>   1</c></rc>
    <rc><c>C </c><c>   1</c></rc>
    <rc><c>C </c><c>   1</c></rc>
    <rc><c>C </c><c>   1</c></rc>
    <rc><c>C </c><c>   1</c></rc>
    <rc><c>C </c><c>   1</c></rc>
    <rc><c>C </c><c>   1</c></rc>
    <rc><c>C </c><c>   1</c></rc>
    <rc><c>C </c><c>   1</c></rc>
    <rc><c>C </c><c>   1</c></rc>
    <rc><c>C </c><c>   1</c></rc>
    <rc><c>C </c><c>   1</c></rc>
    <rc><c>C </c><c>   1</c></rc>
    <rc><c>C </c><c>   1</c></rc>
    <rc><c>C </c><c>   1</c></rc>
    <rc><c>C </c><c>   1</c></rc>
    <rc><c>C </c><c>   1</c></rc>
    <rc><c>C </c><c>   1</c></rc>
    <rc><c>C </c><c>   1</c></rc>
    <rc><c>C </c><c>   1</c></rc>
    <rc><c>C </c><c>   1</c></rc>
    <rc><c>C </c><c>   1</c></rc>
    <rc><c>C </c><c>   1</c></rc>
    <rc><c>C </c><c>   1</c></rc>
    <rc><c>C </c><c>   1</c></rc>
    <rc><c>C </c><c>   1</c></rc>
    <rc><c>C </c><c>   1</c></rc>
    <rc><c>C </c><c>   1</c></rc>
    <rc><c>C </c><c>   1</c></rc>
    <rc><c>C </c><c>   1</c></rc>
    <rc><c>C </c><c>   1</c></rc>
    <rc><c>C </c><c>   1</c></rc>
    <rc><c>C </c><c>   1</c></rc>
    <rc><c>C </c><c>   1</c></rc>
    <rc><c>C </c><c>   1</c></rc>
    <rc><c>C </c><c>   1</c></rc>
    <rc><c>C </c><c>   1</c></rc>
    <rc><c>C </c><c>   1</c></rc>
    <rc><c>C </c><c>   1</c></rc>
    <rc><c>C </c><c>   1</c></rc>
    <rc><c>C </c><c>   1</c></rc>
    <rc><c>C </c><c>   1</c></rc>
    <rc><c>C </c><c>   1</c></rc>
    <rc><c>C </c><c>   1</c></rc>
    <rc><c>C </c><c>   1</c></rc>
    <rc><c>C </c><c>   1</c></rc>
    <rc><c>C </c><c>   1</c></rc>
    <rc><c>C </c><c>   1</c></rc>
    <rc><c>C </c><c>   1</c></rc>
    <rc><c>C </c><c>   1</c></rc>
    <rc><c>C </c><c>   1</c></rc>
    <rc><c>C </c><c>   1</c></rc>
    <rc><c>Al</c><c>   2</c></rc>
    <rc><c>S </c><c>   3</c></rc>
    <rc><c>S </c><c>   3</c></rc>
    <rc><c>S </c><c>   3</c></rc>
    <rc><c>S </c><c>   3</c></rc>
    <rc><c>S </c><c>   3</c></rc>
    <rc><c>S </c><c>   3</c></rc>
    <rc><c>S </c><c>   3</c></rc>
    <rc><c>S </c><c>   3</c></rc>
    <rc><c>S </c><c>   3</c></rc>
    <rc><c>S </c><c>   3</c></rc>
    <rc><c>S </c><c>   3</c></rc>
    <rc><c>S </c><c>   3</c></rc>
    <rc><c>S </c><c>   3</c></rc>
    <rc><c>S </c><c>   3</c></rc>
    <rc><c>S </c><c>   3</c></rc>
    <rc><c>S </c><c>   3</c></rc>
    <rc><c>S </c><c>   3</c></rc>
    <rc><c>S </c><c>   3</c></rc>
    <rc><c>S </c><c>   3</c></rc>
    <rc><c>S </c><c>   3</c></rc>
    <rc><c>S </c><c>   3</c></rc>
    <rc><c>S </c><c>   3</c></rc>
    <rc><c>S </c><c>   3</c></rc>
    <rc><c>S </c><c>   3</c></rc>
    <rc><c>S </c><c>   3</c></rc>
    <rc><c>S </c><c>   3</c></rc>
    <rc><c>S </c><c>   3</c></rc>
    <rc><c>S </c><c>   3</c></rc>
    <rc><c>S </c><c>   3</c></rc>
    <rc><c>S </c><c>   3</c></rc>
    <rc><c>S </c><c>   3</c></rc>
    <rc><c>S </c><c>   3</c></rc>
    <rc><c>S </c><c>   3</c></rc>
    <rc><c>S </c><c>   3</c></rc>
    <rc><c>S </c><c>   3</c></rc>
    <rc><c>S </c><c>   3</c></rc>
    <rc><c>S </c><c>   3</c></rc>
    <rc><c>S </c><c>   3</c></rc>
    <rc><c>S </c><c>   3</c></rc>
    <rc><c>S </c><c>   3</c></rc>
    <rc><c>S </c><c>   3</c></rc>
    <rc><c>S </c><c>   3</c></rc>
    <rc><c>S </c><c>   3</c></rc>
    <rc><c>S </c><c>   3</c></rc>
    <rc><c>S </c><c>   3</c></rc>
    <rc><c>S </c><c>   3</c></rc>
    <rc><c>S </c><c>   3</c></rc>
    <rc><c>S </c><c>   3</c></rc>
    <rc><c>S </c><c>   3</c></rc>
    <rc><c>S </c><c>   3</c></rc>
    <rc><c>S </c><c>   3</c></rc>
    <rc><c>S </c><c>   3</c></rc>
    <rc><c>S </c><c>   3</c></rc>
    <rc><c>S </c><c>   3</c></rc>
    <rc><c>Cl</c><c>   4</c></rc>
    <rc><c>Cl</c><c>   4</c></rc>
    <rc><c>Cl</c><c>   4</c></rc>
    <rc><c>Cl</c><c>   4</c></rc>
    <rc><c>Cu</c><c>   5</c></rc>
    <rc><c>Cu</c><c>   5</c></rc>
    <rc><c>Cu</c><c>   5</c></rc>
    <rc><c>Cu</c><c>   5</c></rc>
    <rc><c>Cu</c><c>   5</c></rc>
    <rc><c>Cu</c><c>   5</c></rc>
    <rc><c>Cu</c><c>   5</c></rc>
    <rc><c>Cu</c><c>   5</c></rc>
    <rc><c>Cu</c><c>   5</c></rc>
    <rc><c>Cu</c><c>   5</c></rc>
    <rc><c>Cu</c><c>   5</c></rc>
    <rc><c>Cu</c><c>   5</c></rc>
    <rc><c>Cu</c><c>   5</c></rc>
    <rc><c>Cu</c><c>   5</c></rc>
    <rc><c>Cu</c><c>   5</c></rc>
    <rc><c>Cu</c><c>   5</c></rc>
    <rc><c>Cu</c><c>   5</c></rc>
    <rc><c>Cu</c><c>   5</c></rc>
    <rc><c>Cu</c><c>   5</c></rc>
    <rc><c>Cu</c><c>   5</c></rc>
    <rc><c>Cu</c><c>   5</c></rc>
    <rc><c>Cu</c><c>   5</c></rc>
    <rc><c>Cu</c><c>   5</c></rc>
    <rc><c>Cu</c><c>   5</c></rc>
    <rc><c>Cu</c><c>   5</c></rc>
    <rc><c>Cu</c><c>   5</c></rc>
    <rc><c>Cu</c><c>   5</c></rc>
   </set>
  </array>
  <array name="atomtypes" >
   <dimension dim="1">type</dimension>
   <field type="int">atomspertype</field>
   <field type="string">element</field>
   <field>mass</field>
   <field>valence</field>
   <field type="string">pseudopotential</field>
   <set>
    <rc><c>  54</c><c>C </c><c>     12.01100000</c><c>      4.00000000</c><c>  PAW_PBE C 08Apr2002                   </c></rc>
    <rc><c>   1</c><c>Al</c><c>     26.98100000</c><c>      3.00000000</c><c>  PAW_PBE Al 04Jan2001                  </c></rc>
    <rc><c>  54</c><c>S </c><c>     32.06600000</c><c>      6.00000000</c><c>  PAW_PBE S 06Sep2000                   </c></rc>
    <rc><c>   4</c><c>Cl</c><c>     35.45300000</c><c>      7.00000000</c><c>  PAW_PBE Cl 06Sep2000                  </c></rc>
    <rc><c>  27</c><c>Cu</c><c>     63.54600000</c><c>     11.00000000</c><c>  PAW_PBE Cu 22Jun2005                  </c></rc>
   </set>
  </array>
 </atominfo>
 <structure name="initialpos" >
  <crystal>
   <varray name="basis" >
    <v>      26.26650047       0.00000000       0.00000000 </v>
    <v>     -13.13288029      22.74974710       0.00000000 </v>
    <v>       0.00000000       0.00000000      20.20179939 </v>
   </varray>
   <i name="volume">  12071.71134534 </i>
   <varray name="rec_basis" >
    <v>       0.03807131       0.02197765       0.00000000 </v>
    <v>       0.00000000       0.04395653       0.00000000 </v>
    <v>       0.00000000       0.00000000       0.04950054 </v>
   </varray>
  </crystal>
  <varray name="positions" >
   <v>       0.02978548       0.30215638       0.49997990 </v>
   <v>       0.02982838       0.06203136       0.49999346 </v>
   <v>       0.27004046       0.30216274       0.49997717 </v>
   <v>       0.06090864       0.03096055       0.49999975 </v>
   <v>       0.30109348       0.27105574       0.49997602 </v>
   <v>       0.30107743       0.03103907       0.49997763 </v>
   <v>       0.36324907       0.30216902       0.49998968 </v>
   <v>       0.36323305       0.06208529       0.49999981 </v>
   <v>       0.60321365       0.30211158       0.50094643 </v>
   <v>       0.39429803       0.03102295       0.50000106 </v>
   <v>       0.63431390       0.27100272       0.50092019 </v>
   <v>       0.63437250       0.03101824       0.49998867 </v>
   <v>       0.69653809       0.30210428       0.50089476 </v>
   <v>       0.69649041       0.06207702       0.49998686 </v>
   <v>       0.93658741       0.30217835       0.49999748 </v>
   <v>       0.72760545       0.03103629       0.49997926 </v>
   <v>       0.96761958       0.27105547       0.49997873 </v>
   <v>       0.96768956       0.03095297       0.49999894 </v>
   <v>       0.02979248       0.63541451       0.49997855 </v>
   <v>       0.02977905       0.39539296       0.49997859 </v>
   <v>       0.26996655       0.63549510       0.49999953 </v>
   <v>       0.06083569       0.36429199       0.49997963 </v>
   <v>       0.30104989       0.60443060       0.49999314 </v>
   <v>       0.30110021       0.36429962       0.49997749 </v>
   <v>       0.36318708       0.63549747       0.49999964 </v>
   <v>       0.36325673       0.39539219       0.49997631 </v>
   <v>       0.60326263       0.63540843       0.49997672 </v>
   <v>       0.39429174       0.36427519       0.49999126 </v>
   <v>       0.63438033       0.60437781       0.50000763 </v>
   <v>       0.63431624       0.36431919       0.50095284 </v>
   <v>       0.69650166       0.63542978       0.50000776 </v>
   <v>       0.69652913       0.39543635       0.50093363 </v>
   <v>       0.93658524       0.63543665       0.49998687 </v>
   <v>       0.72764384       0.36433397       0.50090363 </v>
   <v>       0.96763734       0.60437577       0.49998688 </v>
   <v>       0.96762366       0.36427844       0.49999896 </v>
   <v>       0.02983950       0.96882726       0.49999272 </v>
   <v>       0.02976190       0.72863210       0.49998199 </v>
   <v>       0.27002825       0.96889381       0.49997748 </v>
   <v>       0.06083410       0.69755783       0.49998203 </v>
   <v>       0.30111121       0.93782394       0.49997772 </v>
   <v>       0.30103167       0.69762980       0.49999418 </v>
   <v>       0.36326551       0.96888499       0.49997793 </v>
   <v>       0.36316983       0.72869118       0.49999910 </v>
   <v>       0.60326832       0.96887741       0.49997778 </v>
   <v>       0.39424221       0.69761918       0.49999252 </v>
   <v>       0.63436551       0.93782160       0.49998221 </v>
   <v>       0.63435217       0.69755246       0.49997349 </v>
   <v>       0.69650996       0.96888845       0.49998308 </v>
   <v>       0.69649274       0.72861228       0.49997408 </v>
   <v>       0.93663162       0.96882942       0.49999329 </v>
   <v>       0.72760182       0.69757182       0.49997774 </v>
   <v>       0.96769552       0.93775141       0.49999951 </v>
   <v>       0.96761029       0.69757475       0.49997722 </v>
   <v>       0.65593411       0.33456595       0.74752957 </v>
   <v>       0.06787270       0.13812325       0.49996207 </v>
   <v>       0.19398727       0.26413215       0.50000995 </v>
   <v>       0.13702433       0.06902053       0.50002622 </v>
   <v>       0.26306709       0.19502114       0.49995325 </v>
   <v>       0.26305247       0.06907605       0.49993933 </v>
   <v>       0.40135429       0.26411298       0.49996318 </v>
   <v>       0.40132477       0.13823685       0.49998044 </v>
   <v>       0.52746643       0.26423933       0.50056805 </v>
   <v>       0.47044100       0.06914339       0.49997996 </v>
   <v>       0.59644482       0.19525487       0.50048321 </v>
   <v>       0.59632785       0.06913882       0.49996837 </v>
   <v>       0.73445344       0.26423227       0.50041433 </v>
   <v>       0.73452829       0.13822396       0.49995558 </v>
   <v>       0.86042373       0.26411306       0.49998695 </v>
   <v>       0.80364597       0.06906998       0.49995550 </v>
   <v>       0.92958086       0.19501944       0.49995055 </v>
   <v>       0.92963267       0.06900803       0.50002159 </v>
   <v>       0.06780355       0.59736964       0.49995862 </v>
   <v>       0.06777017       0.47141246       0.49995023 </v>
   <v>       0.19384425       0.59743124       0.50002133 </v>
   <v>       0.13689557       0.40231835       0.50000540 </v>
   <v>       0.26296153       0.52830473       0.49996177 </v>
   <v>       0.26307085       0.40230402       0.50001170 </v>
   <v>       0.40123014       0.59743040       0.50002996 </v>
   <v>       0.40126404       0.47140812       0.49995344 </v>
   <v>       0.52723931       0.59737280       0.49994322 </v>
   <v>       0.47045524       0.40232198       0.49996427 </v>
   <v>       0.59631646       0.52818620       0.49999407 </v>
   <v>       0.59643159       0.40222992       0.50050247 </v>
   <v>       0.73455583       0.59729861       0.49999292 </v>
   <v>       0.73442686       0.47122258       0.50055532 </v>
   <v>       0.86042311       0.59731938       0.49996380 </v>
   <v>       0.80345665       0.40223645       0.50042364 </v>
   <v>       0.92952073       0.52821801       0.49995599 </v>
   <v>       0.92951994       0.40231683       0.49999429 </v>
   <v>       0.06790901       0.93075615       0.49995942 </v>
   <v>       0.06777437       0.80466468       0.50001418 </v>
   <v>       0.19398370       0.93086938       0.50000631 </v>
   <v>       0.13688836       0.73559079       0.50000967 </v>
   <v>       0.26306953       0.86179506       0.50000552 </v>
   <v>       0.26295963       0.73568009       0.49996612 </v>
   <v>       0.40129035       0.93087667       0.49994892 </v>
   <v>       0.40120321       0.80479523       0.50002296 </v>
   <v>       0.52723428       0.93087555       0.49995033 </v>
   <v>       0.47034060       0.73567822       0.49996181 </v>
   <v>       0.59633471       0.86177751       0.50001107 </v>
   <v>       0.59633716       0.73556064       0.50000644 </v>
   <v>       0.73453564       0.93084893       0.50001152 </v>
   <v>       0.73449891       0.80464691       0.50000547 </v>
   <v>       0.86052662       0.93076839       0.49996403 </v>
   <v>       0.80363271       0.73557097       0.49994556 </v>
   <v>       0.92963406       0.86164820       0.50002642 </v>
   <v>       0.92956950       0.73557670       0.49994575 </v>
   <v>       0.06780921       0.26412776       0.50000658 </v>
   <v>       0.72120151       0.31752345       0.70398938 </v>
   <v>       0.67103210       0.41836788       0.71104167 </v>
   <v>       0.57001562       0.26671249       0.71530530 </v>
   <v>       0.66103359       0.33546676       0.85356752 </v>
   <v>       0.49879648       0.33321220       0.50137462 </v>
   <v>       0.99871087       0.16657185       0.50006599 </v>
   <v>       0.83202189       0.16661168       0.50029899 </v>
   <v>       0.83208774       0.33321446       0.50130775 </v>
   <v>       0.33211397       0.49987893       0.50006807 </v>
   <v>       0.16535993       0.49987868       0.50006495 </v>
   <v>       0.16537525       0.66651598       0.50006341 </v>
   <v>       0.66543434       0.49986937       0.50167028 </v>
   <v>       0.49880083       0.49982331       0.50035940 </v>
   <v>       0.49876979       0.66651117       0.50007155 </v>
   <v>       0.99863005       0.49983222       0.50028616 </v>
   <v>       0.83206632       0.49988499       0.50112836 </v>
   <v>       0.83202480       0.66642463       0.50034234 </v>
   <v>       0.33211056       0.83327440       0.50007029 </v>
   <v>       0.16540427       0.83322590       0.50008169 </v>
   <v>       0.16546854       0.99991942       0.50007557 </v>
   <v>       0.66540706       0.83321835       0.50008216 </v>
   <v>       0.49875158       0.83327266       0.50006419 </v>
   <v>       0.49882459       0.00001837       0.50030740 </v>
   <v>       0.99870527       0.83317596       0.50006752 </v>
   <v>       0.83205621       0.83317284       0.50007287 </v>
   <v>       0.83207723       0.99991419       0.50006355 </v>
   <v>       0.33219139       0.16662081       0.50036746 </v>
   <v>       0.16545446       0.16656971       0.50007201 </v>
   <v>       0.16542679       0.33321545       0.50008044 </v>
   <v>       0.66543223       0.16658903       0.50113303 </v>
   <v>       0.49878088       0.16660044       0.50151831 </v>
  </varray>
 </structure>
 <calculation>
  <scstep>
   <time name="dav">  415.04  415.23</time>
   <time name="total">  415.92  416.13</time>
   <energy>
    <i name="alphaZ">    315.09161757 </i>
    <i name="ewald"> 106338.45875003 </i>
    <i name="hartreedc">-160905.84729692 </i>
    <i name="XCdc">   2664.65585827 </i>
    <i name="pawpsdc">  52118.65182442 </i>
    <i name="pawaedc"> -54801.79846914 </i>
    <i name="eentropy">     -0.11227484 </i>
    <i name="bandstr">    -40.69392473 </i>
    <i name="atom">  62143.14740716 </i>
    <i name="e_fr_energy">   7831.55349182 </i>
    <i name="e_wo_entrp">   7831.66576666 </i>
    <i name="e_0_energy">   7831.60962924 </i>
   </energy>
  </scstep>
  <scstep>
   <time name="dav">  489.00  489.21</time>
   <time name="total">  489.01  489.22</time>
   <energy>
    <i name="e_fr_energy">   1008.19835288 </i>
    <i name="e_wo_entrp">   1008.23260269 </i>
    <i name="e_0_energy">   1008.21547778 </i>
   </energy>
  </scstep>
  <scstep>
   <time name="dav">  562.63  562.86</time>
   <time name="total">  562.64  562.86</time>
   <energy>
    <i name="e_fr_energy">   -738.33502322 </i>
    <i name="e_wo_entrp">   -738.22963658 </i>
    <i name="e_0_energy">   -738.28232990 </i>
   </energy>
  </scstep>
  <scstep>
   <time name="dav">  611.86  612.09</time>
   <time name="total">  611.86  612.09</time>
   <energy>
    <i name="e_fr_energy">   -903.80908379 </i>
    <i name="e_wo_entrp">   -903.68342116 </i>
    <i name="e_0_energy">   -903.74625248 </i>
   </energy>
  </scstep>
  <scstep>
   <time name="dav">  631.57  631.81</time>
   <time name="total">  638.25  638.51</time>
   <energy>
    <i name="e_fr_energy">   -910.18776310 </i>
    <i name="e_wo_entrp">   -909.98172310 </i>
    <i name="e_0_energy">   -910.08474310 </i>
   </energy>
  </scstep>
  <scstep>
   <time name="diag">   37.71   37.75</time>
   <time name="diis">  304.51  304.62</time>
   <time name="orth">   11.87   11.87</time>
   <time name="total">  361.59  361.76</time>
   <energy>
    <i name="e_fr_energy">   -863.73232869 </i>
    <i name="e_wo_entrp">   -863.66351238 </i>
    <i name="e_0_energy">   -863.69792053 </i>
   </energy>
  </scstep>
  <scstep>
   <time name="diag">   37.83   37.85</time>
   <time name="diis">  263.72  263.83</time>
   <time name="orth">   11.83   11.83</time>
   <time name="total">  320.82  320.95</time>
   <energy>
    <i name="e_fr_energy">   -589.66756077 </i>
    <i name="e_wo_entrp">   -589.65308184 </i>
    <i name="e_0_energy">   -589.66032130 </i>
   </energy>
  </scstep>
  <scstep>
   <time name="diag">   37.67   37.68</time>
   <time name="diis">  288.03  288.14</time>
   <time name="orth">   11.80   11.80</time>
   <time name="total">  345.00  345.13</time>
   <energy>
    <i name="e_fr_energy">   -651.44763446 </i>
    <i name="e_wo_entrp">   -651.37801871 </i>
    <i name="e_0_energy">   -651.41282659 </i>
   </energy>
  </scstep>
  <scstep>
   <time name="diag">   37.73   37.74</time>
   <time name="diis">  280.34  280.46</time>
   <time name="orth">   11.79   11.80</time>
   <time name="total">  337.36  337.50</time>
   <energy>
    <i name="e_fr_energy">   -606.47521299 </i>
    <i name="e_wo_entrp">   -606.39547702 </i>
    <i name="e_0_energy">   -606.43534501 </i>
   </energy>
  </scstep>
  <scstep>
   <time name="diag">   37.70   37.71</time>
   <time name="diis">  264.74  264.84</time>
   <time name="orth">   11.80   11.80</time>
   <time name="total">  321.78  321.90</time>
   <energy>
    <i name="e_fr_energy">   -637.64309161 </i>
    <i name="e_wo_entrp">   -637.56942884 </i>
    <i name="e_0_energy">   -637.60626022 </i>
   </energy>
  </scstep>
  <scstep>
   <time name="diag">   37.75   37.78</time>
   <time name="diis">  268.04  268.13</time>
   <time name="orth">   11.77   11.78</time>
   <time name="total">  325.06  325.19</time>
   <energy>
    <i name="e_fr_energy">   -691.35195736 </i>
    <i name="e_wo_entrp">   -691.30045727 </i>
    <i name="e_0_energy">   -691.32620732 </i>
   </energy>
  </scstep>
  <scstep>
   <time name="diag">   37.75   37.76</time>
   <time name="diis">  272.48  272.58</time>
   <time name="orth">   11.79   11.80</time>
   <time name="total">  329.54  329.67</time>
   <energy>
    <i name="e_fr_energy">   -732.77620924 </i>
    <i name="e_wo_entrp">   -732.72520527 </i>
    <i name="e_0_energy">   -732.75070726 </i>
   </energy>
  </scstep>
  <scstep>
   <time name="diag">   37.81   37.82</time>
   <time name="diis">  278.10  278.20</time>
   <time name="orth">   11.75   11.76</time>
   <time name="total">  335.17  335.29</time>
   <energy>
    <i name="e_fr_energy">   -779.19241866 </i>
    <i name="e_wo_entrp">   -779.12525428 </i>
    <i name="e_0_energy">   -779.15883647 </i>
   </energy>
  </scstep>
  <scstep>
   <time name="diag">   37.77   37.79</time>
   <time name="diis">  278.59  278.71</time>
   <time name="orth">   11.79   11.79</time>
   <time name="total">  335.62  335.76</time>
   <energy>
    <i name="e_fr_energy">   -791.90656353 </i>
    <i name="e_wo_entrp">   -791.83744238 </i>
    <i name="e_0_energy">   -791.87200296 </i>
   </energy>
  </scstep>
  <scstep>
   <time name="diag">   37.85   37.86</time>
   <time name="diis">  270.97  271.07</time>
   <time name="orth">   11.76   11.76</time>
   <time name="total">  328.06  328.17</time>
   <energy>
    <i name="e_fr_energy">   -800.26211191 </i>
    <i name="e_wo_entrp">   -800.18559299 </i>
    <i name="e_0_energy">   -800.22385245 </i>
   </energy>
  </scstep>
  <scstep>
   <time name="diag">   37.80   37.81</time>
   <time name="diis">  262.87  262.98</time>
   <time name="orth">   11.79   11.80</time>
   <time name="total">  320.00  320.13</time>
   <energy>
    <i name="e_fr_energy">   -810.02624897 </i>
    <i name="e_wo_entrp">   -809.90796941 </i>
    <i name="e_0_energy">   -809.96710919 </i>
   </energy>
  </scstep>
  <scstep>
   <time name="diag">   37.76   37.78</time>
   <time name="diis">  285.45  285.57</time>
   <time name="orth">   11.81   11.81</time>
   <time name="total">  342.57  342.71</time>
   <energy>
    <i name="e_fr_energy">   -813.42483097 </i>
    <i name="e_wo_entrp">   -813.35423719 </i>
    <i name="e_0_energy">   -813.38953408 </i>
   </energy>
  </scstep>
  <scstep>
   <time name="diag">   37.80   37.81</time>
   <time name="diis">  271.58  271.69</time>
   <time name="orth">   11.78   11.79</time>
   <time name="total">  328.69  328.83</time>
   <energy>
    <i name="e_fr_energy">   -819.80669852 </i>
    <i name="e_wo_entrp">   -819.75011251 </i>
    <i name="e_0_energy">   -819.77840551 </i>
   </energy>
  </scstep>
  <scstep>
   <time name="diag">   37.70   37.71</time>
   <time name="diis">  289.63  289.73</time>
   <time name="orth">   11.78   11.78</time>
   <time name="total">  346.64  346.76</time>
   <energy>
    <i name="e_fr_energy">   -823.02643748 </i>
    <i name="e_wo_entrp">   -822.96033350 </i>
    <i name="e_0_energy">   -822.99338549 </i>
   </energy>
  </scstep>
  <scstep>
   <time name="diag">   37.80   37.81</time>
   <time name="diis">  295.83  295.96</time>
   <time name="orth">   11.77   11.77</time>
   <time name="total">  352.95  353.10</time>
   <energy>
    <i name="e_fr_energy">   -824.09239946 </i>
    <i name="e_wo_entrp">   -824.01626266 </i>
    <i name="e_0_energy">   -824.05433106 </i>
   </energy>
  </scstep>
  <scstep>
   <time name="diag">   37.66   37.67</time>
   <time name="diis">  294.33  294.43</time>
   <time name="orth">   11.71   11.71</time>
   <time name="total">  351.25  351.37</time>
   <energy>
    <i name="e_fr_energy">   -824.70935332 </i>
    <i name="e_wo_entrp">   -824.62168649 </i>
    <i name="e_0_energy">   -824.66551990 </i>
   </energy>
  </scstep>
  <scstep>
   <time name="diag">   37.70   37.74</time>
   <time name="diis">  306.64  306.75</time>
   <time name="orth">   11.73   11.73</time>
   <time name="total">  363.62  363.78</time>
   <energy>
    <i name="e_fr_energy">   -825.33440228 </i>
    <i name="e_wo_entrp">   -825.23306255 </i>
    <i name="e_0_energy">   -825.28373242 </i>
   </energy>
  </scstep>
  <scstep>
   <time name="diag">   37.71   37.73</time>
   <time name="diis">  287.11  287.23</time>
   <time name="orth">   11.72   11.73</time>
   <time name="total">  344.12  344.26</time>
   <energy>
    <i name="e_fr_energy">   -825.87455899 </i>
    <i name="e_wo_entrp">   -825.77418479 </i>
    <i name="e_0_energy">   -825.82437189 </i>
   </energy>
  </scstep>
  <scstep>
   <time name="diag">   37.67   37.69</time>
   <time name="diis">  278.15  278.25</time>
   <time name="orth">   11.71   11.72</time>
   <time name="total">  335.08  335.21</time>
   <energy>
    <i name="e_fr_energy">   -826.70715505 </i>
    <i name="e_wo_entrp">   -826.59452043 </i>
    <i name="e_0_energy">   -826.65083774 </i>
   </energy>
  </scstep>
  <scstep>
   <time name="diag">   37.58   37.59</time>
   <time name="diis">  285.42  285.54</time>
   <time name="orth">   11.75   11.76</time>
   <time name="total">  342.30  342.45</time>
   <energy>
    <i name="e_fr_energy">   -827.14696754 </i>
    <i name="e_wo_entrp">   -827.04745135 </i>
    <i name="e_0_energy">   -827.09720944 </i>
   </energy>
  </scstep>
  <scstep>
   <time name="diag">   37.55   37.56</time>
   <time name="diis">  293.68  293.78</time>
   <time name="orth">   11.75   11.76</time>
   <time name="total">  350.51  350.64</time>
   <energy>
    <i name="e_fr_energy">   -827.40263354 </i>
    <i name="e_wo_entrp">   -827.29837762 </i>
    <i name="e_0_energy">   -827.35050558 </i>
   </energy>
  </scstep>
  <scstep>
   <time name="diag">   37.57   37.58</time>
   <time name="diis">  284.39  284.52</time>
   <time name="orth">   11.69   11.70</time>
   <time name="total">  341.20  341.34</time>
   <energy>
    <i name="e_fr_energy">   -827.66588059 </i>
    <i name="e_wo_entrp">   -827.55631357 </i>
    <i name="e_0_energy">   -827.61109708 </i>
   </energy>
  </scstep>
  <scstep>
   <time name="diag">   37.64   37.65</time>
   <time name="diis">  279.73  279.84</time>
   <time name="orth">   11.72   11.72</time>
   <time name="total">  336.66  336.79</time>
   <energy>
    <i name="e_fr_energy">   -827.94732211 </i>
    <i name="e_wo_entrp">   -827.84333486 </i>
    <i name="e_0_energy">   -827.89532849 </i>
   </energy>
  </scstep>
  <scstep>
   <time name="diag">   37.62   37.63</time>
   <time name="diis">  274.30  274.42</time>
   <time name="orth">   11.69   11.70</time>
   <time name="total">  331.23  331.37</time>
   <energy>
    <i name="e_fr_energy">   -828.20411497 </i>
    <i name="e_wo_entrp">   -828.10148690 </i>
    <i name="e_0_energy">   -828.15280094 </i>
   </energy>
  </scstep>
  <scstep>
   <time name="diag">   37.60   37.61</time>
   <time name="diis">  282.96  283.06</time>
   <time name="orth">   11.69   11.71</time>
   <time name="total">  339.81  339.95</time>
   <energy>
    <i name="e_fr_energy">   -828.27282272 </i>
    <i name="e_wo_entrp">   -828.16765542 </i>
    <i name="e_0_energy">   -828.22023907 </i>
   </energy>
  </scstep>
  <scstep>
   <time name="diag">   37.58   37.60</time>
   <time name="diis">  288.22  288.32</time>
   <time name="orth">   11.71   11.72</time>
   <time name="total">  345.07  345.20</time>
   <energy>
    <i name="e_fr_energy">   -828.29154198 </i>
    <i name="e_wo_entrp">   -828.18744890 </i>
    <i name="e_0_energy">   -828.23949544 </i>
   </energy>
  </scstep>
  <scstep>
   <time name="diag">   37.57   37.58</time>
   <time name="diis">  279.33  279.45</time>
   <time name="orth">   11.70   11.70</time>
   <time name="total">  336.19  336.33</time>
   <energy>
    <i name="e_fr_energy">   -828.30277969 </i>
    <i name="e_wo_entrp">   -828.19823473 </i>
    <i name="e_0_energy">   -828.25050721 </i>
   </energy>
  </scstep>
  <scstep>
   <time name="diag">   37.70   37.71</time>
   <time name="diis">  286.94  287.04</time>
   <time name="orth">   11.70   11.70</time>
   <time name="total">  343.93  344.05</time>
   <energy>
    <i name="e_fr_energy">   -828.30724445 </i>
    <i name="e_wo_entrp">   -828.20219926 </i>
    <i name="e_0_energy">   -828.25472185 </i>
   </energy>
  </scstep>
  <scstep>
   <time name="diag">   37.65   37.66</time>
   <time name="diis">  274.06  274.18</time>
   <time name="orth">   11.69   11.69</time>
   <time name="total">  331.02  331.16</time>
   <energy>
    <i name="e_fr_energy">   -828.30843651 </i>
    <i name="e_wo_entrp">   -828.20407537 </i>
    <i name="e_0_energy">   -828.25625594 </i>
   </energy>
  </scstep>
  <scstep>
   <time name="diag">   37.72   37.73</time>
   <time name="diis">  238.94  239.03</time>
   <time name="orth">   11.69   11.70</time>
   <time name="total">  295.95  296.06</time>
   <energy>
    <i name="e_fr_energy">   -828.30884616 </i>
    <i name="e_wo_entrp">   -828.20413949 </i>
    <i name="e_0_energy">   -828.25649282 </i>
   </energy>
  </scstep>
  <scstep>
   <time name="diag">   37.66   37.67</time>
   <time name="diis">  228.08  228.18</time>
   <time name="orth">   11.68   11.68</time>
   <time name="total">  285.04  285.16</time>
   <energy>
    <i name="e_fr_energy">   -828.30935388 </i>
    <i name="e_wo_entrp">   -828.20464151 </i>
    <i name="e_0_energy">   -828.25699769 </i>
   </energy>
  </scstep>
  <scstep>
   <time name="diag">   37.64   37.65</time>
   <time name="diis">  217.65  217.73</time>
   <time name="orth">   11.70   11.70</time>
   <time name="total">  274.62  274.71</time>
   <energy>
    <i name="e_fr_energy">   -828.30956697 </i>
    <i name="e_wo_entrp">   -828.20497388 </i>
    <i name="e_0_energy">   -828.25727042 </i>
   </energy>
  </scstep>
  <scstep>
   <time name="diag">   37.55   37.56</time>
   <time name="diis">  209.68  209.77</time>
   <time name="orth">   11.71   11.71</time>
   <time name="total">  266.55  266.66</time>
   <energy>
    <i name="e_fr_energy">   -828.30990870 </i>
    <i name="e_wo_entrp">   -828.20520885 </i>
    <i name="e_0_energy">   -828.25755877 </i>
   </energy>
  </scstep>
  <scstep>
   <time name="diag">   37.60   37.61</time>
   <time name="diis">  190.62  190.69</time>
   <time name="orth">   11.71   11.71</time>
   <time name="total">  247.56  247.65</time>
   <energy>
    <i name="e_fr_energy">   -828.31029013 </i>
    <i name="e_wo_entrp">   -828.20561823 </i>
    <i name="e_0_energy">   -828.25795418 </i>
   </energy>
  </scstep>
  <scstep>
   <time name="diag">   37.67   37.68</time>
   <time name="diis">  191.14  191.21</time>
   <time name="orth">   11.69   11.70</time>
   <time name="total">  248.14  248.23</time>
   <energy>
    <i name="e_fr_energy">   -828.31066199 </i>
    <i name="e_wo_entrp">   -828.20604519 </i>
    <i name="e_0_energy">   -828.25835359 </i>
   </energy>
  </scstep>
  <scstep>
   <time name="diag">   37.67   37.68</time>
   <time name="diis">  173.92  174.00</time>
   <time name="orth">   11.71   11.71</time>
   <time name="total">  230.93  231.03</time>
   <energy>
    <i name="e_fr_energy">   -828.31101135 </i>
    <i name="e_wo_entrp">   -828.20633607 </i>
    <i name="e_0_energy">   -828.25867371 </i>
   </energy>
  </scstep>
  <scstep>
   <time name="diag">   37.76   37.78</time>
   <time name="diis">  165.40  165.46</time>
   <time name="orth">   11.72   11.72</time>
   <time name="total">  222.51  222.59</time>
   <energy>
    <i name="e_fr_energy">   -828.31119213 </i>
    <i name="e_wo_entrp">   -828.20648426 </i>
    <i name="e_0_energy">   -828.25883819 </i>
   </energy>
  </scstep>
  <scstep>
   <time name="diag">   37.66   37.67</time>
   <time name="diis">  164.77  164.83</time>
   <time name="orth">   11.72   11.72</time>
   <time name="total">  221.80  221.87</time>
   <energy>
    <i name="e_fr_energy">   -828.31135507 </i>
    <i name="e_wo_entrp">   -828.20666415 </i>
    <i name="e_0_energy">   -828.25900961 </i>
   </energy>
  </scstep>
  <scstep>
   <time name="diag">   37.62   37.65</time>
   <time name="diis">  172.72  172.78</time>
   <time name="orth">   11.67   11.68</time>
   <time name="total">  229.68  229.78</time>
   <energy>
    <i name="e_fr_energy">   -828.31155496 </i>
    <i name="e_wo_entrp">   -828.20686878 </i>
    <i name="e_0_energy">   -828.25921187 </i>
   </energy>
  </scstep>
  <scstep>
   <time name="diag">   37.60   37.61</time>
   <time name="diis">  164.11  164.17</time>
   <time name="orth">   11.74   11.74</time>
   <time name="total">  221.11  221.18</time>
   <energy>
    <i name="e_fr_energy">   -828.31160073 </i>
    <i name="e_wo_entrp">   -828.20692041 </i>
    <i name="e_0_energy">   -828.25926057 </i>
   </energy>
  </scstep>
  <scstep>
   <time name="diag">   37.57   37.58</time>
   <time name="diis">  161.38  161.46</time>
   <time name="orth">   11.68   11.69</time>
   <time name="total">  218.25  218.35</time>
   <energy>
    <i name="e_fr_energy">   -828.31161739 </i>
    <i name="e_wo_entrp">   -828.20692847 </i>
    <i name="e_0_energy">   -828.25927293 </i>
   </energy>
  </scstep>
  <scstep>
   <time name="diag">   37.66   37.67</time>
   <time name="diis">  159.98  160.05</time>
   <time name="orth">   11.69   11.70</time>
   <time name="total">  216.99  217.09</time>
   <energy>
    <i name="e_fr_energy">   -828.31163368 </i>
    <i name="e_wo_entrp">   -828.20694075 </i>
    <i name="e_0_energy">   -828.25928721 </i>
   </energy>
  </scstep>
  <scstep>
   <time name="diag">   37.68   37.69</time>
   <time name="diis">  160.56  160.63</time>
   <time name="orth">   11.71   11.71</time>
   <time name="total">  217.60  217.69</time>
   <energy>
    <i name="e_fr_energy">   -828.31164444 </i>
    <i name="e_wo_entrp">   -828.20695452 </i>
    <i name="e_0_energy">   -828.25929948 </i>
   </energy>
  </scstep>
  <scstep>
   <time name="diag">   37.58   37.60</time>
   <time name="diis">  158.51  158.59</time>
   <time name="orth">   11.72   11.73</time>
   <time name="total">  215.51  215.61</time>
   <energy>
    <i name="e_fr_energy">   -828.31164767 </i>
    <i name="e_wo_entrp">   -828.20695425 </i>
    <i name="e_0_energy">   -828.25930096 </i>
   </energy>
  </scstep>
  <scstep>
   <time name="diag">   37.57   37.58</time>
   <time name="diis">  156.27  156.33</time>
   <time name="orth">   11.71   11.71</time>
   <time name="total">  213.22  213.29</time>
   <energy>
    <i name="e_fr_energy">   -828.31164969 </i>
    <i name="e_wo_entrp">   -828.20695212 </i>
    <i name="e_0_energy">   -828.25930091 </i>
   </energy>
  </scstep>
  <scstep>
   <time name="diag">   37.52   37.54</time>
   <time name="diis">  154.61  154.66</time>
   <time name="orth">   11.71   11.71</time>
   <time name="total">  211.49  211.56</time>
   <energy>
    <i name="e_fr_energy">   -828.31165147 </i>
    <i name="e_wo_entrp">   -828.20695403 </i>
    <i name="e_0_energy">   -828.25930275 </i>
   </energy>
  </scstep>
  <scstep>
   <time name="diag">   37.53   37.55</time>
   <time name="diis">  152.99  153.07</time>
   <time name="orth">   11.70   11.70</time>
   <time name="total">  209.93  210.03</time>
   <energy>
    <i name="e_fr_energy">   -828.31165416 </i>
    <i name="e_wo_entrp">   -828.20695876 </i>
    <i name="e_0_energy">   -828.25930646 </i>
   </energy>
  </scstep>
  <scstep>
   <time name="diag">   37.56   37.57</time>
   <time name="diis">  152.98  153.04</time>
   <time name="orth">   11.72   11.72</time>
   <time name="total">  209.91  210.00</time>
   <energy>
    <i name="e_fr_energy">   -828.31165677 </i>
    <i name="e_wo_entrp">   -828.20696479 </i>
    <i name="e_0_energy">   -828.25931078 </i>
   </energy>
  </scstep>
  <scstep>
   <time name="diag">   37.49   37.50</time>
   <time name="diis">  149.51  149.56</time>
   <time name="orth">   11.71   11.71</time>
   <time name="total">  206.39  206.46</time>
   <energy>
    <i name="e_fr_energy">   -828.31165790 </i>
    <i name="e_wo_entrp">   -828.20696442 </i>
    <i name="e_0_energy">   -828.25931116 </i>
   </energy>
  </scstep>
  <scstep>
   <time name="diag">   37.61   37.62</time>
   <time name="diis">  148.42  148.49</time>
   <time name="orth">   11.75   11.75</time>
   <time name="total">  205.43  205.52</time>
   <energy>
    <i name="e_fr_energy">   -828.31166028 </i>
    <i name="e_wo_entrp">   -828.20696205 </i>
    <i name="e_0_energy">   -828.25931116 </i>
   </energy>
  </scstep>
  <scstep>
   <time name="diag">   37.54   37.56</time>
   <time name="diis">  149.86  149.91</time>
   <time name="orth">   11.72   11.72</time>
   <time name="total">  206.79  206.86</time>
   <energy>
    <i name="e_fr_energy">   -828.31166292 </i>
    <i name="e_wo_entrp">   -828.20696374 </i>
    <i name="e_0_energy">   -828.25931333 </i>
   </energy>
  </scstep>
  <scstep>
   <time name="diag">   37.55   37.56</time>
   <time name="diis">  149.68  149.73</time>
   <time name="orth">   11.70   11.70</time>
   <time name="total">  199.80  199.87</time>
   <energy>
    <i name="alphaZ">    315.09161757 </i>
    <i name="ewald"> 106338.45875003 </i>
    <i name="hartreedc">-161145.71374754 </i>
    <i name="XCdc">   2669.62302028 </i>
    <i name="pawpsdc">  98705.21604446 </i>
    <i name="pawaedc">-101461.72961585 </i>
    <i name="eentropy">     -0.10469945 </i>
    <i name="bandstr">  -8392.30044046 </i>
    <i name="atom">  62143.14740716 </i>
    <i name="e_fr_energy">   -828.31166380 </i>
    <i name="e_wo_entrp">   -828.20696435 </i>
    <i name="e_0_energy">   -828.25931407 </i>
   </energy>
  </scstep>
  <structure>
   <crystal>
    <varray name="basis" >
     <v>      26.26650047       0.00000000       0.00000000 </v>
     <v>     -13.13288029      22.74974710       0.00000000 </v>
     <v>       0.00000000       0.00000000      20.20179939 </v>
    </varray>
    <i name="volume">  12071.71134534 </i>
    <varray name="rec_basis" >
     <v>       0.03807131       0.02197765       0.00000000 </v>
     <v>       0.00000000       0.04395653       0.00000000 </v>
     <v>       0.00000000       0.00000000       0.04950054 </v>
    </varray>
   </crystal>
   <varray name="positions" >
    <v>       0.02978548       0.30215638       0.49997990 </v>
    <v>       0.02982838       0.06203136       0.49999346 </v>
    <v>       0.27004046       0.30216274       0.49997717 </v>
    <v>       0.06090864       0.03096055       0.49999975 </v>
    <v>       0.30109348       0.27105574       0.49997602 </v>
    <v>       0.30107743       0.03103907       0.49997763 </v>
    <v>       0.36324907       0.30216902       0.49998968 </v>
    <v>       0.36323305       0.06208529       0.49999981 </v>
    <v>       0.60321365       0.30211158       0.50094643 </v>
    <v>       0.39429803       0.03102295       0.50000106 </v>
    <v>       0.63431390       0.27100272       0.50092019 </v>
    <v>       0.63437250       0.03101824       0.49998867 </v>
    <v>       0.69653809       0.30210428       0.50089476 </v>
    <v>       0.69649041       0.06207702       0.49998686 </v>
    <v>       0.93658741       0.30217835       0.49999748 </v>
    <v>       0.72760545       0.03103629       0.49997926 </v>
    <v>       0.96761958       0.27105547       0.49997873 </v>
    <v>       0.96768956       0.03095297       0.49999894 </v>
    <v>       0.02979248       0.63541451       0.49997855 </v>
    <v>       0.02977905       0.39539296       0.49997859 </v>
    <v>       0.26996655       0.63549510       0.49999953 </v>
    <v>       0.06083569       0.36429199       0.49997963 </v>
    <v>       0.30104989       0.60443060       0.49999314 </v>
    <v>       0.30110021       0.36429962       0.49997749 </v>
    <v>       0.36318708       0.63549747       0.49999964 </v>
    <v>       0.36325673       0.39539219       0.49997631 </v>
    <v>       0.60326263       0.63540843       0.49997672 </v>
    <v>       0.39429174       0.36427519       0.49999126 </v>
    <v>       0.63438033       0.60437781       0.50000763 </v>
    <v>       0.63431624       0.36431919       0.50095284 </v>
    <v>       0.69650166       0.63542978       0.50000776 </v>
    <v>       0.69652913       0.39543635       0.50093363 </v>
    <v>       0.93658524       0.63543665       0.49998687 </v>
    <v>       0.72764384       0.36433397       0.50090363 </v>
    <v>       0.96763734       0.60437577       0.49998688 </v>
    <v>       0.96762366       0.36427844       0.49999896 </v>
    <v>       0.02983950       0.96882726       0.49999272 </v>
    <v>       0.02976190       0.72863210       0.49998199 </v>
    <v>       0.27002825       0.96889381       0.49997748 </v>
    <v>       0.06083410       0.69755783       0.49998203 </v>
    <v>       0.30111121       0.93782394       0.49997772 </v>
    <v>       0.30103167       0.69762980       0.49999418 </v>
    <v>       0.36326551       0.96888499       0.49997793 </v>
    <v>       0.36316983       0.72869118       0.49999910 </v>
    <v>       0.60326832       0.96887741       0.49997778 </v>
    <v>       0.39424221       0.69761918       0.49999252 </v>
    <v>       0.63436551       0.93782160       0.49998221 </v>
    <v>       0.63435217       0.69755246       0.49997349 </v>
    <v>       0.69650996       0.96888845       0.49998308 </v>
    <v>       0.69649274       0.72861228       0.49997408 </v>
    <v>       0.93663162       0.96882942       0.49999329 </v>
    <v>       0.72760182       0.69757182       0.49997774 </v>
    <v>       0.96769552       0.93775141       0.49999951 </v>
    <v>       0.96761029       0.69757475       0.49997722 </v>
    <v>       0.65593411       0.33456595       0.74752957 </v>
    <v>       0.06787270       0.13812325       0.49996207 </v>
    <v>       0.19398727       0.26413215       0.50000995 </v>
    <v>       0.13702433       0.06902053       0.50002622 </v>
    <v>       0.26306709       0.19502114       0.49995325 </v>
    <v>       0.26305247       0.06907605       0.49993933 </v>
    <v>       0.40135429       0.26411298       0.49996318 </v>
    <v>       0.40132477       0.13823685       0.49998044 </v>
    <v>       0.52746643       0.26423933       0.50056805 </v>
    <v>       0.47044100       0.06914339       0.49997996 </v>
    <v>       0.59644482       0.19525487       0.50048321 </v>
    <v>       0.59632785       0.06913882       0.49996837 </v>
    <v>       0.73445344       0.26423227       0.50041433 </v>
    <v>       0.73452829       0.13822396       0.49995558 </v>
    <v>       0.86042373       0.26411306       0.49998695 </v>
    <v>       0.80364597       0.06906998       0.49995550 </v>
    <v>       0.92958086       0.19501944       0.49995055 </v>
    <v>       0.92963267       0.06900803       0.50002159 </v>
    <v>       0.06780355       0.59736964       0.49995862 </v>
    <v>       0.06777017       0.47141246       0.49995023 </v>
    <v>       0.19384425       0.59743124       0.50002133 </v>
    <v>       0.13689557       0.40231835       0.50000540 </v>
    <v>       0.26296153       0.52830473       0.49996177 </v>
    <v>       0.26307085       0.40230402       0.50001170 </v>
    <v>       0.40123014       0.59743040       0.50002996 </v>
    <v>       0.40126404       0.47140812       0.49995344 </v>
    <v>       0.52723931       0.59737280       0.49994322 </v>
    <v>       0.47045524       0.40232198       0.49996427 </v>
    <v>       0.59631646       0.52818620       0.49999407 </v>
    <v>       0.59643159       0.40222992       0.50050247 </v>
    <v>       0.73455583       0.59729861       0.49999292 </v>
    <v>       0.73442686       0.47122258       0.50055532 </v>
    <v>       0.86042311       0.59731938       0.49996380 </v>
    <v>       0.80345665       0.40223645       0.50042364 </v>
    <v>       0.92952073       0.52821801       0.49995599 </v>
    <v>       0.92951994       0.40231683       0.49999429 </v>
    <v>       0.06790901       0.93075615       0.49995942 </v>
    <v>       0.06777437       0.80466468       0.50001418 </v>
    <v>       0.19398370       0.93086938       0.50000631 </v>
    <v>       0.13688836       0.73559079       0.50000967 </v>
    <v>       0.26306953       0.86179506       0.50000552 </v>
    <v>       0.26295963       0.73568009       0.49996612 </v>
    <v>       0.40129035       0.93087667       0.49994892 </v>
    <v>       0.40120321       0.80479523       0.50002296 </v>
    <v>       0.52723428       0.93087555       0.49995033 </v>
    <v>       0.47034060       0.73567822       0.49996181 </v>
    <v>       0.59633471       0.86177751       0.50001107 </v>
    <v>       0.59633716       0.73556064       0.50000644 </v>
    <v>       0.73453564       0.93084893       0.50001152 </v>
    <v>       0.73449891       0.80464691       0.50000547 </v>
    <v>       0.86052662       0.93076839       0.49996403 </v>
    <v>       0.80363271       0.73557097       0.49994556 </v>
    <v>       0.92963406       0.86164820       0.50002642 </v>
    <v>       0.92956950       0.73557670       0.49994575 </v>
    <v>       0.06780921       0.26412776       0.50000658 </v>
    <v>       0.72120151       0.31752345       0.70398938 </v>
    <v>       0.67103210       0.41836788       0.71104167 </v>
    <v>       0.57001562       0.26671249       0.71530530 </v>
    <v>       0.66103359       0.33546676       0.85356752 </v>
    <v>       0.49879648       0.33321220       0.50137462 </v>
    <v>       0.99871087       0.16657185       0.50006599 </v>
    <v>       0.83202189       0.16661168       0.50029899 </v>
    <v>       0.83208774       0.33321446       0.50130775 </v>
    <v>       0.33211397       0.49987893       0.50006807 </v>
    <v>       0.16535993       0.49987868       0.50006495 </v>
    <v>       0.16537525       0.66651598       0.50006341 </v>
    <v>       0.66543434       0.49986937       0.50167028 </v>
    <v>       0.49880083       0.49982331       0.50035940 </v>
    <v>       0.49876979       0.66651117       0.50007155 </v>
    <v>       0.99863005       0.49983222       0.50028616 </v>
    <v>       0.83206632       0.49988499       0.50112836 </v>
    <v>       0.83202480       0.66642463       0.50034234 </v>
    <v>       0.33211056       0.83327440       0.50007029 </v>
    <v>       0.16540427       0.83322590       0.50008169 </v>
    <v>       0.16546854       0.99991942       0.50007557 </v>
    <v>       0.66540706       0.83321835       0.50008216 </v>
    <v>       0.49875158       0.83327266       0.50006419 </v>
    <v>       0.49882459       0.00001837       0.50030740 </v>
    <v>       0.99870527       0.83317596       0.50006752 </v>
    <v>       0.83205621       0.83317284       0.50007287 </v>
    <v>       0.83207723       0.99991419       0.50006355 </v>
    <v>       0.33219139       0.16662081       0.50036746 </v>
    <v>       0.16545446       0.16656971       0.50007201 </v>
    <v>       0.16542679       0.33321545       0.50008044 </v>
    <v>       0.66543223       0.16658903       0.50113303 </v>
    <v>       0.49878088       0.16660044       0.50151831 </v>
   </varray>
  </structure>
  <varray name="forces" >
   <v>      -0.03909570      -0.01097201      -0.00034263 </v>
   <v>       0.00857688      -0.00882202      -0.00005564 </v>
   <v>       0.02922033      -0.01391754      -0.00036558 </v>
   <v>      -0.00283370       0.00239152       0.00021014 </v>
   <v>      -0.00854334       0.03928444       0.00022560 </v>
   <v>       0.02244250      -0.01379952       0.00020583 </v>
   <v>       0.04484689      -0.05756969       0.00049970 </v>
   <v>      -0.01991854       0.06174207       0.00080727 </v>
   <v>      -0.00336345      -0.00373793       0.01683079 </v>
   <v>       0.05283527       0.02325837       0.00099412 </v>
   <v>       0.02068676       0.01773561       0.01618797 </v>
   <v>      -0.05823771       0.02130053       0.00045523 </v>
   <v>       0.00451963       0.01215140       0.01670725 </v>
   <v>       0.01842293       0.05341012       0.00032672 </v>
   <v>      -0.04292525      -0.05954713       0.00074575 </v>
   <v>      -0.03078288      -0.02091117       0.00010860 </v>
   <v>       0.01114871       0.04351169       0.00021394 </v>
   <v>       0.00026146       0.00957453       0.00015758 </v>
   <v>      -0.02953242       0.01247691       0.00019046 </v>
   <v>       0.00588414      -0.04630278       0.00022426 </v>
   <v>       0.00218225      -0.00512586       0.00013756 </v>
   <v>      -0.02222325       0.00822744      -0.00040723 </v>
   <v>      -0.01164181      -0.00825303      -0.00004573 </v>
   <v>       0.03530092       0.00130211      -0.00046708 </v>
   <v>      -0.00239463      -0.01265911       0.00024703 </v>
   <v>      -0.00685085      -0.04257854       0.00028110 </v>
   <v>       0.03441917       0.01630161       0.00037658 </v>
   <v>       0.05225826       0.05449015       0.00057603 </v>
   <v>      -0.00955555      -0.08378790       0.00111772 </v>
   <v>      -0.01227488       0.02257957       0.01744991 </v>
   <v>       0.06895705      -0.02987932       0.00107535 </v>
   <v>       0.01287279       0.00705871       0.01690778 </v>
   <v>      -0.06519149      -0.02286657       0.00027894 </v>
   <v>       0.00959668      -0.00695263       0.01598668 </v>
   <v>       0.02540154      -0.05798313       0.00036999 </v>
[...]
    <v>       0.36310840       0.72869519       0.50010840 </v>
    <v>       0.60319003       0.96894259       0.49993454 </v>
    <v>       0.39418847       0.69760653       0.50000088 </v>
    <v>       0.63441462       0.93799418       0.49986335 </v>
    <v>       0.63442058       0.69738302       0.49979963 </v>
    <v>       0.69631536       0.96891306       0.49986917 </v>
    <v>       0.69633791       0.72835923       0.49979320 </v>
    <v>       0.93656126       0.96881258       0.50000310 </v>
    <v>       0.72765326       0.69749718       0.50001413 </v>
    <v>       0.96761922       0.93771641       0.50011831 </v>
    <v>       0.96755783       0.69754658       0.49992820 </v>
    <v>       0.65578000       0.33437509       0.71349325 </v>
    <v>       0.06784442       0.13808033       0.49961789 </v>
    <v>       0.19366327       0.26411914       0.50003195 </v>
    <v>       0.13692572       0.06900498       0.50071712 </v>
    <v>       0.26296002       0.19500485       0.49973972 </v>
    <v>       0.26299143       0.06901084       0.49956826 </v>
    <v>       0.40138217       0.26435759       0.50160209 </v>
    <v>       0.40153714       0.13811069       0.50199185 </v>
    <v>       0.52791831       0.26451872       0.51041433 </v>
    <v>       0.47033957       0.06934503       0.50192303 </v>
    <v>       0.59668480       0.19550484       0.50962149 </v>
    <v>       0.59662474       0.06930760       0.50131048 </v>
    <v>       0.73423564       0.26432557       0.50778241 </v>
    <v>       0.73441606       0.13808939       0.50113236 </v>
    <v>       0.86058087       0.26446657       0.50167761 </v>
    <v>       0.80366343       0.06894663       0.49967003 </v>
    <v>       0.92970121       0.19502288       0.49959449 </v>
    <v>       0.92954237       0.06896493       0.50060151 </v>
    <v>       0.06782976       0.59743781       0.49966617 </v>
    <v>       0.06799251       0.47148404       0.49958716 </v>
    <v>       0.19385062       0.59753453       0.50057227 </v>
    <v>       0.13720879       0.40241744       0.50004602 </v>
    <v>       0.26296885       0.52839570       0.49961173 </v>
    <v>       0.26285459       0.40236248       0.50004750 </v>
    <v>       0.40105122       0.59733710       0.50074824 </v>
    <v>       0.40124426       0.47148310       0.49974278 </v>
    <v>       0.52714248       0.59745261       0.49956691 </v>
    <v>       0.47031919       0.40200354       0.50157687 </v>
    <v>       0.59670621       0.52838436       0.50230478 </v>
    <v>       0.59670685       0.40192840       0.51030486 </v>
    <v>       0.73411296       0.59714104       0.50224261 </v>
    <v>       0.73442379       0.47081175       0.51014498 </v>
    <v>       0.86055450       0.59725343       0.50121584 </v>
    <v>       0.80315557       0.40203351       0.50817692 </v>
    <v>       0.92944601       0.52839721       0.50109626 </v>
    <v>       0.92938568       0.40202142       0.50175966 </v>
    <v>       0.06768921       0.93070946       0.49959320 </v>
    <v>       0.06800393       0.80499778       0.50019270 </v>
    <v>       0.19368772       0.93083132       0.50001195 </v>
    <v>       0.13718976       0.73585154       0.50014090 </v>
    <v>       0.26284156       0.86153358       0.49997731 </v>
    <v>       0.26297616       0.73564255       0.49967976 </v>
    <v>       0.40108230       0.93067791       0.49957094 </v>
    <v>       0.40122618       0.80483679       0.50062181 </v>
    <v>       0.52714878       0.93086366       0.49961938 </v>
    <v>       0.47030672       0.73569672       0.49960600 </v>
    <v>       0.59616614       0.86149774       0.50016379 </v>
    <v>       0.59608519       0.73567634       0.49993901 </v>
    <v>       0.73443868       0.93053585       0.50019094 </v>
    <v>       0.73458271       0.80499688       0.49990576 </v>
    <v>       0.86044572       0.93082265       0.49965516 </v>
    <v>       0.80360606       0.73569146       0.49957879 </v>
    <v>       0.92957300       0.86165950       0.50066758 </v>
    <v>       0.92961931       0.73564063       0.49962369 </v>
    <v>       0.06789022       0.26395459       0.50008293 </v>
    <v>       0.72061883       0.31676413       0.66973905 </v>
    <v>       0.66968248       0.41778080       0.67718296 </v>
    <v>       0.56993195       0.26757550       0.67971975 </v>
    <v>       0.66449838       0.33679557       0.81839903 </v>
    <v>       0.49941524       0.33316023       0.50674736 </v>
    <v>       0.99880913       0.16639519       0.50041600 </v>
    <v>       0.83211270       0.16679398       0.50171645 </v>
    <v>       0.83132645       0.33315781       0.50554824 </v>
    <v>       0.33178365       0.49972632       0.50053217 </v>
    <v>       0.16565937       0.49996638       0.50039727 </v>
    <v>       0.16550068       0.66676586       0.50047097 </v>
    <v>       0.66547564       0.49897292       0.50733721 </v>
    <v>       0.49902371       0.49976915       0.50225113 </v>
    <v>       0.49855712       0.66663653       0.50048497 </v>
    <v>       0.99846706       0.49962879       0.50167089 </v>
    <v>       0.83158498       0.49930209       0.50549779 </v>
    <v>       0.83182991       0.66625952       0.50198509 </v>
    <v>       0.33182020       0.83296849       0.50046291 </v>
    <v>       0.16548092       0.83338749       0.50046289 </v>
    <v>       0.16515821       0.99978703       0.50049250 </v>
    <v>       0.66521047       0.83302983       0.50044366 </v>
    <v>       0.49875615       0.83317377       0.50047369 </v>
    <v>       0.49876528       0.00018025       0.50189592 </v>
    <v>       0.99876746       0.83323430       0.50052070 </v>
    <v>       0.83209462       0.83344911       0.50048930 </v>
    <v>       0.83193291       0.99968818       0.50046990 </v>
    <v>       0.33239198       0.16662456       0.50215927 </v>
    <v>       0.16529458       0.16664613       0.50053903 </v>
    <v>       0.16533385       0.33324637       0.50043337 </v>
    <v>       0.66561481       0.16717999       0.50554508 </v>
    <v>       0.49957654       0.16747329       0.50693371 </v>
   </varray>
  </structure>
  <varray name="forces" >
   <v>       0.11951039      -0.32318828       0.00120375 </v>
   <v>      -0.02352356      -0.00532049       0.00269649 </v>
   <v>      -0.15017899      -0.31220346      -0.00049838 </v>
   <v>      -0.00797723       0.05631653       0.00273579 </v>
   <v>       0.07254717       0.13478645       0.00901602 </v>
   <v>       0.10781828       0.01468457       0.01021970 </v>
   <v>      -0.20314656       0.02280174       0.01012783 </v>
   <v>      -0.05015471      -0.18312209       0.00937924 </v>
   <v>      -0.03995302       0.03433719       0.02032403 </v>
   <v>      -0.10863999      -0.13979663       0.00951240 </v>
   <v>      -0.07523229      -0.07250867       0.01759852 </v>
   <v>       0.06780793      -0.13627954       0.00715252 </v>
   <v>       0.06577426      -0.10014406      -0.01911848 </v>
   <v>       0.06761036      -0.14040675       0.00808987 </v>
   <v>       0.13876078      -0.03027754       0.00786596 </v>
   <v>      -0.10492486       0.00405881       0.00754862 </v>
   <v>      -0.03650749       0.10974797       0.00792707 </v>
   <v>      -0.03792877       0.03112752       0.00279992 </v>
   <v>      -0.13192134      -0.02263065       0.00652252 </v>
   <v>      -0.09204092      -0.09465916       0.00799248 </v>
   <v>       0.02945685      -0.03137576       0.00270440 </v>
   <v>       0.14195505       0.34853264       0.00086075 </v>
   <v>       0.02243876       0.03397261       0.00270022 </v>
   <v>      -0.13810242       0.34158537      -0.00066693 </v>
   <v>       0.01186218       0.00782013       0.00219100 </v>
   <v>       0.05549493      -0.11976614       0.00885223 </v>
   <v>       0.13205875       0.04254009       0.01027572 </v>
   <v>      -0.20049368       0.00941165       0.01005654 </v>
   <v>      -0.06091835       0.23854582       0.00921630 </v>
   <v>       0.01645970      -0.05513632       0.02843474 </v>
   <v>      -0.18191191       0.19381979       0.00929663 </v>
   <v>      -0.10803734      -0.06042473       0.01180484 </v>
   <v>       0.09622125       0.14716585       0.00711531 </v>
   <v>       0.00710029       0.06024361      -0.00806891 </v>
   <v>       0.09160380       0.19302101       0.00714564 </v>
   <v>       0.17166695       0.06280496       0.00715454 </v>
   <v>      -0.01019517      -0.04030284       0.00282303 </v>
   <v>      -0.19260653       0.23505527       0.00083340 </v>
   <v>      -0.27018884      -0.02638776       0.00116287 </v>
   <v>       0.28908565       0.02073490       0.00006626 </v>
   <v>       0.17362029      -0.26346862       0.00023558 </v>
   <v>       0.00313939       0.03662360       0.00263107 </v>
   <v>      -0.03051687       0.06260804       0.00833960 </v>
   <v>       0.05133394       0.00393272       0.00255643 </v>
   <v>       0.06791009       0.07635607       0.00655249 </v>
   <v>      -0.02875798       0.01222855       0.00248235 </v>
   <v>      -0.16270740      -0.22949914       0.00058862 </v>
   <v>      -0.31215255       0.01377341      -0.00014285 </v>
   <v>       0.28843958      -0.00220806       0.00123326 </v>
   <v>       0.13736582       0.27966780       0.00004908 </v>
   <v>       0.01685641      -0.01500247       0.00239193 </v>
   <v>      -0.11253260      -0.11056016       0.01042706 </v>
   <v>      -0.03230095       0.02664538       0.00235490 </v>
   <v>       0.06898477      -0.07149268       0.00720770 </v>
   <v>      -0.00166472       0.02149317      -0.02401525 </v>
   <v>      -0.00198009      -0.01051827       0.00108458 </v>
   <v>       0.19043714       0.09178770      -0.00161708 </v>
   <v>       0.02073795       0.00277484       0.00050357 </v>
   <v>       0.02041150      -0.05500798       0.00227880 </v>
   <v>      -0.04391816       0.05646660       0.00201451 </v>
   <v>       0.17557314      -0.11532557       0.00097897 </v>
   <v>      -0.03706964       0.19000174       0.00058988 </v>
   <v>      -0.03493610      -0.03053939      -0.05484228 </v>
   <v>       0.14542008       0.05811985       0.00184053 </v>
   <v>       0.01148282      -0.03177515       0.03014969 </v>
   <v>      -0.13808342       0.05679174      -0.00109471 </v>
   <v>       0.07213832      -0.02122943      -0.05480600 </v>
   <v>       0.01006132       0.15075782      -0.00136092 </v>
   <v>      -0.10381281      -0.10765694      -0.00214466 </v>
   <v>       0.01001797       0.03255612       0.00063507 </v>
   <v>      -0.02786346      -0.03802886       0.00258915 </v>
   <v>       0.02699081      -0.01268808       0.00119664 </v>
   <v>       0.03978236      -0.03594822       0.00054855 </v>
   <v>      -0.03101419      -0.00937718       0.00311192 </v>
   <v>      -0.03311264      -0.02455066       0.00129107 </v>
   <v>      -0.17667255      -0.10790577       0.00010410 </v>
   <v>      -0.00856598      -0.02770766       0.00105919 </v>
   <v>       0.18451342      -0.10978414      -0.00159190 </v>
   <v>       0.00859348       0.00505947       0.00054602 </v>
   <v>       0.02155429       0.00348035       0.00320427 </v>
   <v>      -0.01620549      -0.06311059       0.00273655 </v>
   <v>       0.13907063       0.09933861      -0.00002226 </v>
   <v>      -0.02910044      -0.24298811       0.00296412 </v>
   <v>      -0.07563153       0.05463460       0.00062346 </v>
   <v>       0.24370574      -0.10461204       0.00412838 </v>
   <v>       0.01436297       0.16296572      -0.01109766 </v>
   <v>      -0.15021879      -0.07552878      -0.00219020 </v>
   <v>       0.10938901       0.06058284       0.00470426 </v>
   <v>       0.02115697      -0.18601775      -0.00181994 </v>
   <v>      -0.10442872       0.08818298      -0.00227968 </v>
   <v>       0.04320501      -0.00512154       0.00192330 </v>
   <v>      -0.00796761      -0.21111318      -0.00006813 </v>
   <v>       0.16573765       0.09215494      -0.00195880 </v>
   <v>      -0.16871623      -0.10577004       0.00140987 </v>
   <v>      -0.00474110       0.22857580      -0.00147454 </v>
   <v>      -0.02958440       0.00998950       0.00073209 </v>
   <v>       0.01329364       0.04020986       0.00079063 </v>
   <v>      -0.01551733      -0.02069491       0.00031115 </v>
   <v>      -0.02271731       0.00765532       0.00266916 </v>
   <v>      -0.02048226      -0.01455289       0.00195338 </v>
   <v>      -0.00387814       0.19344110      -0.00011366 </v>
   <v>       0.22310800      -0.12895295      -0.00176815 </v>
   <v>      -0.15336662       0.10392739       0.00100809 </v>
   <v>      -0.00069020      -0.26940166      -0.00174289 </v>
   <v>       0.01995338      -0.00267674       0.00109483 </v>
   <v>       0.06535294      -0.00184334       0.00029710 </v>
   <v>       0.00402756      -0.02568336       0.00046635 </v>
   <v>      -0.03352715      -0.01182888       0.00262197 </v>
   <v>      -0.14046599       0.09774615       0.00053536 </v>
   <v>       0.10301974      -0.00584466      -0.07831552 </v>
   <v>      -0.01791318       0.14477786      -0.11170697 </v>
   <v>      -0.04245914      -0.11242880      -0.02368122 </v>
   <v>      -0.04059772      -0.03734267       0.13165166 </v>
   <v>      -0.10319432       0.00043819      -0.00336842 </v>
   <v>      -0.03463887       0.02609583      -0.00539018 </v>
   <v>       0.00033171      -0.02112193      -0.00988892 </v>
   <v>       0.13426323       0.00333971       0.00993665 </v>
   <v>       0.03457903       0.01256034      -0.00511494 </v>
   <v>      -0.04140552      -0.01642791      -0.00499977 </v>
   <v>      -0.01080167      -0.02379747      -0.00528967 </v>
   <v>      -0.06700164       0.12315888       0.01546195 </v>
   <v>      -0.02086668      -0.00447139      -0.01468140 </v>
   <v>       0.03935520      -0.02224706      -0.00544703 </v>
   <v>       0.00645528       0.02400599      -0.00958272 </v>
   <v>       0.03867750       0.08779790       0.00028956 </v>
   <v>       0.01556513       0.01201124      -0.01177032 </v>
   <v>       0.00773719       0.04521302      -0.00507914 </v>
   <v>      -0.00804301      -0.01332268      -0.00743562 </v>
   <v>       0.03340933       0.01806242      -0.00554602 </v>
   <v>      -0.00049023       0.01677705      -0.00829944 </v>
   <v>      -0.01386180       0.01853600      -0.00443635 </v>
   <v>       0.01981081      -0.00530783      -0.01142490 </v>
   <v>      -0.01075173      -0.01191425      -0.00490885 </v>
   <v>      -0.00300258      -0.03992085      -0.00576030 </v>
   <v>      -0.01018481       0.01805842      -0.00524013 </v>
   <v>      -0.01721964       0.00882486      -0.01308262 </v>
   <v>       0.02421073      -0.00404206      -0.00540392 </v>
   <v>       0.01516969      -0.00607686      -0.00811656 </v>
   <v>       0.03015458      -0.08847619      -0.00206110 </v>
   <v>      -0.05378291      -0.11645725       0.01004271 </v>
  </varray>
  <varray name="stress" >
   <v>      -0.89389042      -0.03042249      -0.02363622 </v>
   <v>      -0.03042253      -0.88810432      -0.00750996 </v>
   <v>      -0.02363620      -0.00750993      -0.18719401 </v>
  </varray>
  <energy>
   <i name="e_fr_energy">   -837.59244188 </i>
   <i name="e_wo_entrp">   -837.54493237 </i>
   <i name="e_0_energy">     -0.09501902 </i>
  </energy>
  <time name="totalsc"> 9444.48 9449.27</time>
 </calculation>
 <calculation>
  <scstep>
   <time name="dav">  415.59  415.83</time>
   <time name="total">  423.12  423.36</time>
   <energy>
    <i name="alphaZ">    315.09161757 </i>
    <i name="ewald"> 108145.41240279 </i>
    <i name="hartreedc">-162989.27187264 </i>
    <i name="XCdc">   2669.90966330 </i>
    <i name="pawpsdc">  98740.57348833 </i>
    <i name="pawaedc">-101497.03855771 </i>
    <i name="eentropy">     -0.09410701 </i>
    <i name="bandstr">  -8356.00853025 </i>
    <i name="atom">  62143.14740716 </i>
    <i name="e_fr_energy">   -828.27848846 </i>
    <i name="e_wo_entrp">   -828.18438145 </i>
    <i name="e_0_energy">   -828.23143495 </i>
   </energy>
  </scstep>
  <scstep>
   <time name="diag">   38.07   38.08</time>
   <time name="diis">  309.57  309.69</time>
   <time name="orth">   11.82   11.84</time>
   <time name="total">  367.02  367.19</time>
   <energy>
    <i name="e_fr_energy">   -828.36786517 </i>
    <i name="e_wo_entrp">   -828.27190118 </i>
    <i name="e_0_energy">   -828.31988318 </i>
   </energy>
  </scstep>
  <scstep>
   <time name="diag">   38.07   38.09</time>
   <time name="diis">  304.59  304.74</time>
   <time name="orth">   11.64   11.64</time>
   <time name="total">  361.92  362.09</time>
   <energy>
    <i name="e_fr_energy">   -828.38033660 </i>
    <i name="e_wo_entrp">   -828.29051687 </i>
    <i name="e_0_energy">   -828.33542674 </i>
   </energy>
  </scstep>
  <scstep>
   <time name="diag">   38.06   38.08</time>
   <time name="diis">  286.67  286.83</time>
   <time name="orth">   11.72   11.72</time>
   <time name="total">  344.03  344.21</time>
   <energy>
    <i name="e_fr_energy">   -828.36552764 </i>
    <i name="e_wo_entrp">   -828.27075160 </i>
    <i name="e_0_energy">   -828.31813962 </i>
   </energy>
  </scstep>
  <scstep>
   <time name="diag">   38.09   38.12</time>
   <time name="diis">  291.79  291.93</time>
   <time name="orth">   11.76   11.76</time>
   <time name="total">  349.22  349.41</time>
   <energy>
    <i name="e_fr_energy">   -828.36281994 </i>
    <i name="e_wo_entrp">   -828.26774599 </i>
    <i name="e_0_energy">   -828.31528296 </i>
   </energy>
  </scstep>
  <scstep>
   <time name="diag">   37.90   37.91</time>
   <time name="diis">  293.33  293.48</time>
   <time name="orth">   11.75   11.75</time>
   <time name="total">  350.50  350.68</time>
   <energy>
    <i name="e_fr_energy">   -828.36229233 </i>
    <i name="e_wo_entrp">   -828.26804680 </i>
    <i name="e_0_energy">   -828.31516957 </i>
   </energy>
  </scstep>
  <scstep>
   <time name="diag">   37.88   37.91</time>
   <time name="diis">  296.80  296.92</time>
   <time name="orth">   11.70   11.70</time>
   <time name="total">  353.93  354.09</time>
   <energy>
    <i name="e_fr_energy">   -828.36227192 </i>
    <i name="e_wo_entrp">   -828.26780438 </i>
    <i name="e_0_energy">   -828.31503815 </i>
   </energy>
  </scstep>
  <scstep>
   <time name="diag">   38.10   38.11</time>
   <time name="diis">  270.38  270.54</time>
   <time name="orth">   11.68   11.69</time>
   <time name="total">  327.72  327.90</time>
   <energy>
    <i name="e_fr_energy">   -828.36216762 </i>
    <i name="e_wo_entrp">   -828.26753910 </i>
    <i name="e_0_energy">   -828.31485336 </i>
   </energy>
  </scstep>
  <scstep>
   <time name="diag">   37.87   37.89</time>
   <time name="diis">  278.24  278.37</time>
   <time name="orth">   11.72   11.72</time>
   <time name="total">  335.43  335.58</time>
   <energy>
    <i name="e_fr_energy">   -828.36219065 </i>
    <i name="e_wo_entrp">   -828.26755459 </i>
    <i name="e_0_energy">   -828.31487262 </i>
   </energy>
  </scstep>
  <scstep>
   <time name="diag">   37.87   37.88</time>
   <time name="diis">  294.40  294.54</time>
   <time name="orth">   11.68   11.68</time>
   <time name="total">  351.61  351.77</time>
   <energy>
    <i name="e_fr_energy">   -828.36201659 </i>
    <i name="e_wo_entrp">   -828.26744990 </i>
    <i name="e_0_energy">   -828.31473324 </i>
   </energy>
  </scstep>
  <scstep>
   <time name="diag">   38.07   38.08</time>
   <time name="diis">  252.31  252.45</time>
   <time name="orth">   11.72   11.72</time>
   <time name="total">  309.68  309.84</time>
   <energy>
    <i name="e_fr_energy">   -828.36200401 </i>
    <i name="e_wo_entrp">   -828.26743160 </i>
    <i name="e_0_energy">   -828.31471780 </i>
   </energy>
  </scstep>
  <scstep>
   <time name="diag">   38.03   38.04</time>
