membrane                                
           1
    26.266500    0.000000    0.000000
   -13.132880   22.749747    0.000000
     0.000000    0.000000   20.201799
   C    Al   S    Cl   Cu
  54   1  54   4  27
Direct configuration=     1
   0.02978548  0.30215638  0.49997990
   0.02982838  0.06203136  0.49999346
   0.27004046  0.30216274  0.49997717
   0.06090864  0.03096055  0.49999975
   0.30109348  0.27105574  0.49997602
   0.30107743  0.03103907  0.49997763
   0.36324907  0.30216902  0.49998968
   0.36323305  0.06208529  0.49999981
   0.60321365  0.30211158  0.50094643
   0.39429803  0.03102295  0.50000106
   0.63431390  0.27100272  0.50092019
   0.63437250  0.03101824  0.49998867
   0.69653809  0.30210428  0.50089476
   0.69649041  0.06207702  0.49998686
   0.93658741  0.30217835  0.49999748
   0.72760545  0.03103629  0.49997926
   0.96761958  0.27105547  0.49997873
   0.96768956  0.03095297  0.49999894
   0.02979248  0.63541451  0.49997855
   0.02977905  0.39539296  0.49997859
   0.26996655  0.63549510  0.49999953
   0.06083569  0.36429199  0.49997963
   0.30104989  0.60443060  0.49999314
   0.30110021  0.36429962  0.49997749
   0.36318708  0.63549747  0.49999964
   0.36325673  0.39539219  0.49997631
   0.60326263  0.63540843  0.49997672
   0.39429174  0.36427519  0.49999126
   0.63438033  0.60437781  0.50000763
   0.63431624  0.36431919  0.50095284
   0.69650166  0.63542978  0.50000776
   0.69652913  0.39543635  0.50093363
   0.93658524  0.63543665  0.49998687
   0.72764384  0.36433397  0.50090363
   0.96763734  0.60437577  0.49998688
   0.96762366  0.36427844  0.49999896
   0.02983950  0.96882726  0.49999272
   0.02976190  0.72863210  0.49998199
   0.27002825  0.96889381  0.49997748
   0.06083410  0.69755783  0.49998203
   0.30111121  0.93782394  0.49997772
   0.30103167  0.69762980  0.49999418
   0.36326551  0.96888499  0.49997793
   0.36316983  0.72869118  0.49999910
   0.60326832  0.96887741  0.49997778
   0.39424221  0.69761918  0.49999252
   0.63436551  0.93782160  0.49998221
   0.63435217  0.69755246  0.49997349
   0.69650996  0.96888845  0.49998308
   0.69649274  0.72861228  0.49997408
   0.93663162  0.96882942  0.49999329
   0.72760182  0.69757182  0.49997774
   0.96769552  0.93775141  0.49999951
   0.96761029  0.69757475  0.49997722
   0.65593411  0.33456595  0.74752957
   0.06787270  0.13812325  0.49996207
   0.19398727  0.26413215  0.50000995
   0.13702433  0.06902053  0.50002622
   0.26306709  0.19502114  0.49995325
   0.26305247  0.06907605  0.49993933
   0.40135429  0.26411298  0.49996318
   0.40132477  0.13823685  0.49998044
   0.52746643  0.26423933  0.50056805
   0.47044100  0.06914339  0.49997996
   0.59644482  0.19525487  0.50048321
   0.59632785  0.06913882  0.49996837
   0.73445344  0.26423227  0.50041433
   0.73452829  0.13822396  0.49995558
   0.86042373  0.26411306  0.49998695
   0.80364597  0.06906998  0.49995550
   0.92958086  0.19501944  0.49995055
   0.92963267  0.06900803  0.50002159
   0.06780355  0.59736964  0.49995862
   0.06777017  0.47141246  0.49995023
   0.19384425  0.59743124  0.50002133
   0.13689557  0.40231835  0.50000540
   0.26296153  0.52830473  0.49996177
   0.26307085  0.40230402  0.50001170
   0.40123014  0.59743040  0.50002996
   0.40126404  0.47140812  0.49995344
   0.52723931  0.59737280  0.49994322
   0.47045524  0.40232198  0.49996427
   0.59631646  0.52818620  0.49999407
   0.59643159  0.40222992  0.50050247
   0.73455583  0.59729861  0.49999292
   0.73442686  0.47122258  0.50055532
   0.86042311  0.59731938  0.49996380
   0.80345665  0.40223645  0.50042364
   0.92952073  0.52821801  0.49995599
   0.92951994  0.40231683  0.49999429
   0.06790901  0.93075615  0.49995942
   0.06777437  0.80466468  0.50001418
   0.19398370  0.93086938  0.50000631
   0.13688836  0.73559079  0.50000967
   0.26306953  0.86179506  0.50000552
   0.26295963  0.73568009  0.49996612
   0.40129035  0.93087667  0.49994892
   0.40120321  0.80479523  0.50002296
   0.52723428  0.93087555  0.49995033
   0.47034060  0.73567822  0.49996181
   0.59633471  0.86177751  0.50001107
   0.59633716  0.73556064  0.50000644
   0.73453564  0.93084893  0.50001152
   0.73449891  0.80464691  0.50000547
   0.86052662  0.93076839  0.49996403
   0.80363271  0.73557097  0.49994556
   0.92963406  0.86164820  0.50002642
   0.92956950  0.73557670  0.49994575
   0.06780921  0.26412776  0.50000658
   0.72120151  0.31752345  0.70398938
   0.67103210  0.41836788  0.71104167
   0.57001562  0.26671249  0.71530530
   0.66103359  0.33546676  0.85356752
   0.49879648  0.33321220  0.50137462
   0.99871087  0.16657185  0.50006599
   0.83202189  0.16661168  0.50029899
   0.83208774  0.33321446  0.50130775
   0.33211397  0.49987893  0.50006807
   0.16535993  0.49987868  0.50006495
   0.16537525  0.66651598  0.50006341
   0.66543434  0.49986937  0.50167028
   0.49880083  0.49982331  0.50035940
   0.49876979  0.66651117  0.50007155
   0.99863005  0.49983222  0.50028616
   0.83206632  0.49988499  0.50112836
   0.83202480  0.66642463  0.50034234
   0.33211056  0.83327440  0.50007029
   0.16540427  0.83322590  0.50008169
   0.16546854  0.99991942  0.50007557
   0.66540706  0.83321835  0.50008216
   0.49875158  0.83327266  0.50006419
   0.49882459  0.00001837  0.50030740
   0.99870527  0.83317596  0.50006752
   0.83205621  0.83317284  0.50007287
   0.83207723  0.99991419  0.50006355
   0.33219139  0.16662081  0.50036746
   0.16545446  0.16656971  0.50007201
   0.16542679  0.33321545  0.50008044
   0.66543223  0.16658903  0.50113303
   0.49878088  0.16660044  0.50151831
Direct configuration=     2
   0.02970204  0.30213311  0.49997908
   0.02983477  0.06201265  0.49999333
   0.27007937  0.30213322  0.49997630
   0.06090597  0.03096562  0.50000026
   0.30111944  0.27113905  0.49997656
   0.30110402  0.03100980  0.49997812
   0.36327040  0.30204694  0.49999088
   0.36326193  0.06221622  0.50000174
   0.60320351  0.30210366  0.50098662
   0.39441973  0.03107227  0.50000343
   0.63437069  0.27104033  0.50095885
   0.63428812  0.03106341  0.49998976
   0.69655927  0.30213005  0.50093465
   0.69658087  0.06219028  0.49998764
   0.93644543  0.30205208  0.49999926
   0.72752675  0.03099194  0.49997952
   0.96768619  0.27114774  0.49997924
   0.96770019  0.03097328  0.49999932
   0.02975146  0.63544097  0.49997901
   0.02974076  0.39529477  0.49997913
   0.26996512  0.63548423  0.49999986
   0.06080359  0.36430944  0.49997865
   0.30101976  0.60441310  0.49999303
   0.30116642  0.36430239  0.49997638
   0.36316926  0.63547063  0.50000023
   0.36319900  0.39530190  0.49997699
   0.60334313  0.63544299  0.49997762
   0.39444549  0.36439074  0.49999263
   0.63427394  0.60420013  0.50001030
   0.63431763  0.36436708  0.50099451
   0.69659663  0.63536642  0.50001033
   0.69656026  0.39545132  0.50097401
   0.93644126  0.63538816  0.49998753
   0.72765409  0.36431923  0.50094181
   0.96762251  0.60425281  0.49998776
   0.96761912  0.36438233  0.50000095
   0.02984767  0.96880796  0.49999258
   0.02970098  0.72857062  0.49998140
   0.27008327  0.96895196  0.49997656
   0.06079907  0.69751141  0.49998108
   0.30115957  0.93788584  0.49997630
   0.30102296  0.69762787  0.49999406
   0.36321195  0.96890422  0.49997868
   0.36316392  0.72869025  0.49999957
   0.60334523  0.96890602  0.49997817
   0.39424599  0.69764276  0.49999248
   0.63436341  0.93787022  0.49998137
   0.63435112  0.69748782  0.49997243
   0.69652214  0.96893779  0.49998226
   0.69650831  0.72857587  0.49997291
   0.93662421  0.96880841  0.49999321
   0.72752826  0.69753275  0.49997852
   0.96771128  0.93776286  0.50000003
   0.96766234  0.69755749  0.49997751
   0.65592821  0.33455574  0.74734919
   0.06788221  0.13814852  0.49996027
   0.19391726  0.26411432  0.50001011
   0.13701900  0.06901792  0.50002967
   0.26303501  0.19497341  0.49995196
   0.26303074  0.06908167  0.49993721
   0.40130485  0.26418215  0.49997182
   0.40127621  0.13811896  0.49999117
   0.52742802  0.26422354  0.50061755
   0.47035093  0.06910355  0.49999016
   0.59641163  0.19519405  0.50052858
   0.59638667  0.06909056  0.49997546
   0.73444430  0.26423098  0.50045157
   0.73447172  0.13812602  0.49996192
   0.86053114  0.26417978  0.49999596
   0.80370311  0.06908848  0.49995391
   0.92956367  0.19496932  0.49994850
   0.92962731  0.06900903  0.50002442
   0.06783227  0.59735930  0.49995698
   0.06781589  0.47148372  0.49994812
   0.19385642  0.59743894  0.50002403
   0.13696521  0.40234158  0.50000560
   0.26297173  0.52831550  0.49995994
   0.26301294  0.40233693  0.50001200
   0.40123507  0.59742719  0.50003354
   0.40129395  0.47148276  0.49995208
   0.52716564  0.59734929  0.49994100
   0.47033904  0.40225652  0.49997278
   0.59640307  0.52834583  0.50000613
   0.59643220  0.40221613  0.50055121
   0.73447220  0.59736438  0.50000466
   0.73442127  0.47121650  0.50060315
   0.86053235  0.59737034  0.49997055
   0.80343903  0.40222705  0.50046256
   0.92956697  0.52832658  0.49996213
   0.92955278  0.40226513  0.50000368
   0.06789550  0.93076365  0.49995747
   0.06783090  0.80475329  0.50001505
   0.19390642  0.93081918  0.50000641
   0.13696354  0.73564086  0.50001030
   0.26301756  0.86170693  0.50000550
   0.26296105  0.73568298  0.49996462
   0.40131352  0.93083279  0.49994681
   0.40120915  0.80480142  0.50002592
   0.52716813  0.93083593  0.49994838
   0.47037274  0.73569245  0.49995990
   0.59630782  0.86169874  0.50001185
   0.59629787  0.73562758  0.50000620
   0.73455143  0.93080447  0.50001237
   0.73452949  0.80473471  0.50000505
   0.86050378  0.93076134  0.49996242
   0.80369865  0.73561790  0.49994355
   0.92963108  0.86164519  0.50002960
   0.92954910  0.73561217  0.49994386
   0.06785790  0.26410512  0.50000692
   0.72133561  0.31748319  0.70373804
   0.67105575  0.41854457  0.71080398
   0.56983706  0.26657752  0.71506585
   0.66106669  0.33547791  0.85362955
   0.49884012  0.33321142  0.50140029
   0.99870894  0.16656551  0.50006805
   0.83202471  0.16661206  0.50030677
   0.83203643  0.33321362  0.50132788
   0.33211297  0.49987709  0.50007064
   0.16536092  0.49988060  0.50006691
   0.16537323  0.66651541  0.50006575
   0.66543494  0.49981803  0.50169576
   0.49880234  0.49982394  0.50036982
   0.49876401  0.66650893  0.50007390
   0.99863080  0.49982962  0.50029379
   0.83202055  0.49983920  0.50115008
   0.83202345  0.66642561  0.50035146
   0.33211056  0.83327244  0.50007252
   0.16540528  0.83322706  0.50008402
   0.16546620  0.99992185  0.50007795
   0.66540480  0.83321408  0.50008442
   0.49875048  0.83327340  0.50006649
   0.49881985  0.00001775  0.50031618
   0.99870308  0.83317310  0.50007007
   0.83205927  0.83317228  0.50007524
   0.83207792  0.99991644  0.50006587
   0.33219099  0.16661670  0.50037726
   0.16545487  0.16656881  0.50007462
   0.16542458  0.33321627  0.50008267
   0.66543494  0.16663260  0.50115489
   0.49882495  0.16664713  0.50154295
Direct configuration=     3
   0.02974351  0.30214468  0.49997949
   0.02983159  0.06202195  0.49999340
   0.27006003  0.30214789  0.49997673
   0.06090730  0.03096310  0.50000001
   0.30110654  0.27109764  0.49997629
   0.30109081  0.03102435  0.49997788
   0.36325980  0.30210762  0.49999028
   0.36324758  0.06215114  0.50000078
   0.60320855  0.30210760  0.50096665
   0.39435924  0.03104776  0.50000225
   0.63434246  0.27102164  0.50093963
   0.63433006  0.03104096  0.49998922
   0.69654874  0.30211724  0.50091482
   0.69653591  0.06213399  0.49998725
   0.93651600  0.30211484  0.49999837
   0.72756587  0.03101398  0.49997939
   0.96765308  0.27110187  0.49997899
   0.96769491  0.03096319  0.49999913
   0.02977185  0.63542782  0.49997878
   0.02975979  0.39534358  0.49997886
   0.26996583  0.63548964  0.49999970
   0.06081955  0.36430077  0.49997914
   0.30103474  0.60442180  0.49999309
   0.30113351  0.36430101  0.49997693
   0.36317811  0.63548397  0.49999994
   0.36322770  0.39534678  0.49997665
   0.60330312  0.63542581  0.49997717
   0.39436907  0.36433330  0.49999195
   0.63432682  0.60428844  0.50000897
   0.63431694  0.36434328  0.50097380
   0.69654942  0.63539792  0.50000905
   0.69654479  0.39544388  0.50095394
   0.93651282  0.63541226  0.49998720
   0.72764900  0.36432656  0.50092283
   0.96762988  0.60431392  0.49998732
   0.96762138  0.36433069  0.49999996
   0.02984361  0.96881755  0.49999265
   0.02973126  0.72860118  0.49998169
   0.27005593  0.96892306  0.49997702
   0.06081648  0.69753449  0.49998156
   0.30113553  0.93785507  0.49997700
   0.30102729  0.69762883  0.49999412
   0.36323857  0.96889466  0.49997831
   0.36316686  0.72869071  0.49999934
   0.60330700  0.96889180  0.49997798
   0.39424412  0.69763104  0.49999250
   0.63436445  0.93784606  0.49998179
   0.63435165  0.69751995  0.49997296
   0.69651608  0.96891327  0.49998267
   0.69650057  0.72859397  0.49997349
   0.93662789  0.96881886  0.49999325
   0.72756482  0.69755217  0.49997813
   0.96770344  0.93775717  0.49999977
   0.96763647  0.69756607  0.49997737
   0.65593114  0.33456082  0.74743885
   0.06787748  0.13813596  0.49996117
   0.19395206  0.26412318  0.50001003
   0.13702165  0.06901922  0.50002796
   0.26305096  0.19499713  0.49995260
   0.26304154  0.06907888  0.49993827
   0.40132943  0.26414777  0.49996752
   0.40130034  0.13817755  0.49998584
   0.52744711  0.26423139  0.50059295
   0.47039570  0.06912335  0.49998509
   0.59642813  0.19522428  0.50050603
   0.59635743  0.06911455  0.49997193
   0.73444884  0.26423162  0.50043306
   0.73449983  0.13817470  0.49995877
   0.86047775  0.26414662  0.49999148
   0.80367471  0.06907928  0.49995470
   0.92957221  0.19499423  0.49994952
   0.92962997  0.06900853  0.50002301
   0.06781799  0.59736444  0.49995779
   0.06779316  0.47144830  0.49994917
   0.19385037  0.59743511  0.50002269
   0.13693060  0.40233003  0.50000550
   0.26296666  0.52831015  0.49996085
   0.26304172  0.40232057  0.50001185
   0.40123262  0.59742879  0.50003176
   0.40127908  0.47144566  0.49995275
   0.52720226  0.59736098  0.49994210
   0.47039679  0.40228906  0.49996855
   0.59636002  0.52826649  0.50000014
   0.59643190  0.40222298  0.50052698
   0.73451377  0.59733169  0.49999882
   0.73442404  0.47121952  0.50057938
   0.86047806  0.59734501  0.49996720
   0.80344779  0.40223172  0.50044322
   0.92954399  0.52827262  0.49995908
   0.92953646  0.40229083  0.49999902
   0.06790222  0.93075992  0.49995844
   0.06780280  0.80470925  0.50001462
   0.19394483  0.93084413  0.50000636
   0.13692617  0.73561597  0.50000999
   0.26304339  0.86175073  0.50000551
   0.26296034  0.73568154  0.49996536
   0.40130201  0.93085460  0.49994786
   0.40120619  0.80479834  0.50002445
   0.52720101  0.93085562  0.49994935
   0.47035676  0.73568538  0.49996085
   0.59632119  0.86173789  0.50001146
   0.59631740  0.73559431  0.50000632
   0.73454358  0.93082657  0.50001195
   0.73451429  0.80469107  0.50000526
   0.86051513  0.93076484  0.49996322
   0.80366588  0.73559458  0.49994455
   0.92963256  0.86164669  0.50002802
   0.92955924  0.73559454  0.49994480
   0.06783370  0.26411638  0.50000675
   0.72126896  0.31750320  0.70386296
   0.67104399  0.41845675  0.71092212
   0.56992581  0.26664460  0.71518486
   0.66105023  0.33547237  0.85359872
   0.49881843  0.33321181  0.50138754
   0.99870990  0.16656866  0.50006703
   0.83202331  0.16661187  0.50030290
   0.83206193  0.33321403  0.50131787
   0.33211347  0.49987800  0.50006936
   0.16536043  0.49987964  0.50006594
   0.16537423  0.66651569  0.50006459
   0.66543464  0.49984355  0.50168310
   0.49880159  0.49982363  0.50036464
   0.49876689  0.66651004  0.50007273
   0.99863043  0.49983091  0.50029000
   0.83204330  0.49986196  0.50113928
   0.83202412  0.66642512  0.50034693
   0.33211056  0.83327341  0.50007141
   0.16540478  0.83322648  0.50008286
   0.16546736  0.99992065  0.50007676
   0.66540593  0.83321620  0.50008330
   0.49875103  0.83327303  0.50006535
   0.49882221  0.00001806  0.50031181
   0.99870417  0.83317452  0.50006881
   0.83205775  0.83317256  0.50007406
   0.83207758  0.99991532  0.50006472
   0.33219119  0.16661874  0.50037239
   0.16545467  0.16656926  0.50007332
   0.16542568  0.33321587  0.50008156
   0.66543359  0.16661094  0.50114403
   0.49880305  0.16662392  0.50153070
Direct configuration=     4
   0.02977052  0.30216247  0.49997851
   0.02983612  0.06202754  0.49999322
   0.27004550  0.30215282  0.49997566
   0.06090838  0.03094833  0.50000067
   0.30114273  0.27108613  0.49997669
   0.30112753  0.03106749  0.49997824
   0.36330906  0.30216661  0.49999231
   0.36328790  0.06215164  0.50000380
   0.60321697  0.30212275  0.50101944
   0.39435178  0.03109148  0.50000569
   0.63434558  0.27102301  0.50099067
   0.63437796  0.03108354  0.49999098
   0.69657231  0.30212416  0.50096670
   0.69648975  0.06213203  0.49998866
   0.93652325  0.30216853  0.50000109
   0.72757316  0.03105156  0.49997945
   0.96760173  0.27108788  0.49997937
   0.96769150  0.03095429  0.49999961
   0.02974408  0.63539262  0.49997907
   0.02973688  0.39535280  0.49997926
   0.26996110  0.63549128  0.50000012
   0.06083000  0.36428373  0.49997799
   0.30102772  0.60441172  0.49999295
   0.30110919  0.36428230  0.49997565
   0.36317027  0.63548729  0.50000071
   0.36327908  0.39535493  0.49997717
   0.60329987  0.63536647  0.49997800
   0.39436206  0.36427073  0.49999414
   0.63437831  0.60428430  0.50001291
   0.63432840  0.36435240  0.50102844
   0.69649308  0.63534488  0.50001287
   0.69655355  0.39544481  0.50100703
   0.93652135  0.63536877  0.49998846
   0.72766314  0.36434157  0.50097339
   0.96757831  0.60431567  0.49998883
   0.96756639  0.36426210  0.50000290
   0.02985142  0.96882121  0.49999248
   0.02975254  0.72861207  0.49998096
   0.27004548  0.96892121  0.49997584
   0.06082644  0.69754205  0.49998048
   0.30111692  0.93784360  0.49997536
   0.30102014  0.69762201  0.49999397
   0.36328292  0.96893879  0.49997893
   0.36316157  0.72869567  0.49999992
   0.60330358  0.96893152  0.49997819
   0.39424219  0.69762198  0.49999243
   0.63437209  0.93783599  0.49998079
   0.63435549  0.69753019  0.49997168
   0.69651112  0.96889860  0.49998170
   0.69650522  0.72860651  0.49997208
   0.93662880  0.96882428  0.49999315
   0.72756732  0.69750231  0.49997881
   0.96770889  0.93775538  0.50000043
   0.96758637  0.69751962  0.49997746
   0.65592483  0.33455089  0.74721131
   0.06788311  0.13814876  0.49995880
   0.19392290  0.26411875  0.50001021
   0.13701672  0.06901836  0.50003248
   0.26302649  0.19497484  0.49995096
   0.26302309  0.06907177  0.49993558
   0.40130652  0.26416621  0.49997888
   0.40128159  0.13813685  0.49999984
   0.52741957  0.26421823  0.50065782
   0.47036826  0.06910857  0.49999843
   0.59641574  0.19519490  0.50056539
   0.59637463  0.06909408  0.49998123
   0.73444394  0.26422895  0.50048185
   0.73448554  0.13814202  0.49996704
   0.86051370  0.26416750  0.50000329
   0.80370022  0.06907859  0.49995269
   0.92957629  0.19497278  0.49994690
   0.92962844  0.06901030  0.50002673
   0.06783862  0.59736785  0.49995570
   0.06782425  0.47148164  0.49994648
   0.19385725  0.59743998  0.50002623
   0.13695905  0.40233896  0.50000573
   0.26296852  0.52831105  0.49995843
   0.26301792  0.40233177  0.50001217
   0.40123244  0.59742566  0.50003645
   0.40128330  0.47148183  0.49995105
   0.52716677  0.59736116  0.49993928
   0.47036127  0.40227346  0.49997975
   0.59638774  0.52832233  0.50001602
   0.59642549  0.40222311  0.50059091
   0.73448575  0.59735773  0.50001427
   0.73442801  0.47122277  0.50064200
   0.86051302  0.59736575  0.49997607
   0.80344266  0.40222670  0.50049408
   0.92956340  0.52830850  0.49996711
   0.92955155  0.40227775  0.50001128
   0.06789385  0.93076149  0.49995587
   0.06782800  0.80474762  0.50001573
   0.19391409  0.93082338  0.50000645
   0.13695832  0.73563919  0.50001076
   0.26302058  0.86171369  0.50000543
   0.26296185  0.73568180  0.49996340
   0.40130086  0.93082303  0.49994518
   0.40121059  0.80480367  0.50002835
   0.52716995  0.93082911  0.49994688
   0.47037636  0.73569601  0.49995835
   0.59631112  0.86170480  0.50001244
   0.59630115  0.73562394  0.50000594
   0.73454671  0.93080678  0.50001304
   0.73452792  0.80473310  0.50000467
   0.86050077  0.93076006  0.49996109
   0.80369834  0.73562785  0.49994198
   0.92963170  0.86164592  0.50003220
   0.92955985  0.73562194  0.49994240
   0.06784951  0.26410795  0.50000717
   0.72140414  0.31746120  0.70355886
   0.67106543  0.41863354  0.71063288
   0.56974487  0.26650961  0.71489009
   0.66108928  0.33548602  0.85360286
   0.49886538  0.33321102  0.50142135
   0.99870845  0.16656292  0.50006968
   0.83202635  0.16661275  0.50031294
   0.83200447  0.33321282  0.50134412
   0.33211167  0.49987535  0.50007269
   0.16536295  0.49988199  0.50006845
   0.16537292  0.66651604  0.50006760
   0.66543433  0.49978690  0.50171678
   0.49880375  0.49982472  0.50037803
   0.49876129  0.66650909  0.50007577
   0.99863105  0.49982792  0.50029983
   0.83199255  0.49981126  0.50116752
   0.83202173  0.66642642  0.50035864
   0.33211019  0.83327046  0.50007429
   0.16540657  0.83322830  0.50008587
   0.16546418  0.99992231  0.50007983
   0.66540327  0.83321234  0.50008623
   0.49875094  0.83327368  0.50006830
   0.49881717  0.00001736  0.50032313
   0.99870219  0.83317184  0.50007209
   0.83206128  0.83317377  0.50007713
   0.83207673  0.99991646  0.50006770
   0.33219127  0.16661445  0.50038501
   0.16545443  0.16656890  0.50007670
   0.16542291  0.33321708  0.50008444
   0.66543630  0.16665842  0.50117254
   0.49885063  0.16667466  0.50156336
Direct configuration=     5
   0.02976835  0.30216105  0.49997859
   0.02983576  0.06202710  0.49999324
   0.27004666  0.30215243  0.49997575
   0.06090830  0.03094952  0.50000061
   0.30113983  0.27108706  0.49997666
   0.30112458  0.03106403  0.49997821
   0.36330511  0.30216188  0.49999214
   0.36328467  0.06215160  0.50000356
   0.60321629  0.30212153  0.50101521
   0.39435237  0.03108797  0.50000542
   0.63434533  0.27102290  0.50098658
   0.63437412  0.03108012  0.49999083
   0.69657042  0.30212361  0.50096254
   0.69649345  0.06213219  0.49998854
   0.93652267  0.30216422  0.50000087
   0.72757257  0.03104854  0.49997945
   0.96760585  0.27108900  0.49997934
   0.96769177  0.03095500  0.49999957
   0.02974631  0.63539545  0.49997905
   0.02973872  0.39535206  0.49997923
   0.26996148  0.63549115  0.50000009
   0.06082916  0.36428509  0.49997808
   0.30102828  0.60441253  0.49999297
   0.30111114  0.36428380  0.49997575
   0.36317089  0.63548702  0.50000065
   0.36327496  0.39535428  0.49997713
   0.60330013  0.63537123  0.49997793
   0.39436263  0.36427575  0.49999397
   0.63437418  0.60428463  0.50001260
   0.63432748  0.36435167  0.50102406
   0.69649760  0.63534913  0.50001256
   0.69655285  0.39544474  0.50100277
   0.93652067  0.63537226  0.49998836
   0.72766200  0.36434036  0.50096934
   0.96758245  0.60431553  0.49998871
   0.96757080  0.36426760  0.50000266
   0.02985079  0.96882092  0.49999250
   0.02975084  0.72861119  0.49998102
   0.27004631  0.96892136  0.49997594
   0.06082564  0.69754144  0.49998057
   0.30111841  0.93784452  0.49997549
   0.30102072  0.69762256  0.49999398
   0.36327937  0.96893525  0.49997888
   0.36316199  0.72869527  0.49999988
   0.60330385  0.96892834  0.49997817
   0.39424235  0.69762271  0.49999244
   0.63437148  0.93783679  0.49998087
   0.63435519  0.69752937  0.49997178
   0.69651152  0.96889977  0.49998178
   0.69650485  0.72860551  0.49997219
   0.93662873  0.96882384  0.49999316
   0.72756712  0.69750630  0.49997876
   0.96770845  0.93775552  0.50000038
   0.96759039  0.69752334  0.49997745
   0.65592534  0.33455169  0.74722956
   0.06788266  0.13814773  0.49995899
   0.19392524  0.26411911  0.50001020
   0.13701711  0.06901843  0.50003211
   0.26302845  0.19497663  0.49995109
   0.26302457  0.06907234  0.49993579
   0.40130836  0.26416473  0.49997797
   0.40128309  0.13814012  0.49999871
   0.52742178  0.26421928  0.50065262
   0.47037046  0.06910976  0.49999736
   0.59641673  0.19519725  0.50056063
   0.59637325  0.06909572  0.49998049
   0.73444433  0.26422917  0.50047793
   0.73448668  0.13814464  0.49996638
   0.86051082  0.26416582  0.50000235
   0.80369818  0.06907864  0.49995285
   0.92957596  0.19497450  0.49994711
   0.92962856  0.06901016  0.50002644
   0.06783697  0.59736758  0.49995587
   0.06782176  0.47147897  0.49994670
   0.19385670  0.59743959  0.50002595
   0.13695677  0.40233824  0.50000571
   0.26296837  0.52831097  0.49995862
   0.26301983  0.40233088  0.50001214
   0.40123245  0.59742591  0.50003607
   0.40128296  0.47147893  0.49995118
   0.52716962  0.59736114  0.49993951
   0.47036412  0.40227472  0.49997885
   0.59638552  0.52831785  0.50001475
   0.59642600  0.40222310  0.50058578
   0.73448800  0.59735564  0.50001303
   0.73442769  0.47122251  0.50063698
   0.86051021  0.59736409  0.49997536
   0.80344307  0.40222710  0.50049000
   0.92956185  0.52830562  0.49996646
   0.92955034  0.40227880  0.50001030
   0.06789453  0.93076136  0.49995607
   0.06782598  0.80474455  0.50001564
   0.19391656  0.93082505  0.50000644
   0.13695574  0.73563733  0.50001070
   0.26302241  0.86171666  0.50000543
   0.26296173  0.73568178  0.49996355
   0.40130095  0.93082556  0.49994539
   0.40121024  0.80480324  0.50002804
   0.52717244  0.93083123  0.49994708
   0.47037478  0.73569516  0.49995855
   0.59631193  0.86170745  0.50001237
   0.59630245  0.73562157  0.50000597
   0.73454646  0.93080837  0.50001295
   0.73452682  0.80472973  0.50000472
   0.86050192  0.93076045  0.49996126
   0.80369574  0.73562518  0.49994219
   0.92963177  0.86164599  0.50003186
   0.92955980  0.73561975  0.49994260
   0.06784824  0.26410862  0.50000714
   0.72139330  0.31746457  0.70358324
   0.67106371  0.41861936  0.71065607
   0.56975938  0.26652044  0.71491373
   0.66108615  0.33548492  0.85360252
   0.49886161  0.33321108  0.50141863
   0.99870857  0.16656338  0.50006946
   0.83202611  0.16661268  0.50031213
   0.83200908  0.33321291  0.50134202
   0.33211182  0.49987556  0.50007243
   0.16536275  0.49988180  0.50006825
   0.16537302  0.66651601  0.50006736
   0.66543435  0.49979145  0.50171408
   0.49880357  0.49982464  0.50037696
   0.49876174  0.66650917  0.50007553
   0.99863100  0.49982816  0.50029904
   0.83199662  0.49981533  0.50116525
   0.83202192  0.66642632  0.50035770
   0.33211022  0.83327070  0.50007406
   0.16540642  0.83322815  0.50008563
   0.16546443  0.99992218  0.50007959
   0.66540348  0.83321265  0.50008599
   0.49875094  0.83327363  0.50006806
   0.49881757  0.00001741  0.50032223
   0.99870235  0.83317205  0.50007183
   0.83206099  0.83317367  0.50007689
   0.83207680  0.99991637  0.50006746
   0.33219126  0.16661479  0.50038400
   0.16545445  0.16656893  0.50007643
   0.16542313  0.33321698  0.50008421
   0.66543608  0.16665462  0.50117025
   0.49884681  0.16667059  0.50156074
Direct configuration=     6
   0.02975397  0.30213479  0.49997763
   0.02983833  0.06202930  0.49999305
   0.27003754  0.30213093  0.49997465
   0.06090989  0.03095572  0.50000128
   0.30113371  0.27107865  0.49997670
   0.30112121  0.03106724  0.49997824
   0.36328043  0.30214929  0.49999470
   0.36326760  0.06213976  0.50000718
   0.60321690  0.30212053  0.50106977
   0.39434516  0.03107147  0.50000929
   0.63433933  0.27101572  0.50103958
   0.63436564  0.03105900  0.49999296
   0.69656577  0.30212202  0.50101527
   0.69650653  0.06212361  0.49999036
   0.93653063  0.30215067  0.50000403
   0.72758317  0.03105317  0.49997919
   0.96760630  0.27108068  0.49997941
   0.96769507  0.03095664  0.50000005
   0.02974727  0.63539119  0.49997897
   0.02974372  0.39536122  0.49997930
   0.26996032  0.63548775  0.50000051
   0.06084178  0.36430856  0.49997699
   0.30102851  0.60441602  0.49999282
   0.30112529  0.36430818  0.49997456
   0.36317021  0.63548733  0.50000144
   0.36327689  0.39536313  0.49997725
   0.60328791  0.63536993  0.49997837
   0.39435084  0.36428870  0.49999665
   0.63436691  0.60430418  0.50001713
   0.63433433  0.36434808  0.50108022
   0.69650625  0.63537561  0.50001696
   0.69655364  0.39544740  0.50105762
   0.93653050  0.63539127  0.49999007
   0.72766526  0.36434440  0.50102178
   0.96760464  0.60432676  0.49999057
   0.96759714  0.36428604  0.50000598
   0.02984490  0.96881757  0.49999233
   0.02974087  0.72862059  0.49998026
   0.27003490  0.96892637  0.49997470
   0.06083635  0.69753609  0.49997961
   0.30112597  0.93783655  0.49997401
   0.30102232  0.69762521  0.49999384
   0.36328000  0.96892848  0.49997909
   0.36316446  0.72869254  0.50000046
   0.60329292  0.96891845  0.49997803
   0.39424446  0.69762686  0.49999235
   0.63435019  0.93782759  0.49997993
   0.63433645  0.69751694  0.49997052
   0.69652662  0.96890907  0.49998084
   0.69652100  0.72860938  0.49997083
   0.93662557  0.96881817  0.49999305
   0.72757801  0.69751413  0.49997906
   0.96770403  0.93775538  0.50000103
   0.96759416  0.69753228  0.49997721
   0.65592074  0.33454575  0.74700243
   0.06788271  0.13814662  0.49995653
   0.19392037  0.26412099  0.50001033
   0.13701692  0.06901803  0.50003677
   0.26302869  0.19498206  0.49994945
   0.26302383  0.06906691  0.49993307
   0.40131947  0.26415928  0.49998961
   0.40129734  0.13815889  0.50001306
   0.52742257  0.26422097  0.50071975
   0.47038647  0.06912292  0.50001108
   0.59642116  0.19520133  0.50062212
   0.59636930  0.06910750  0.49999004
   0.73444603  0.26422605  0.50052846
   0.73449273  0.13816192  0.49997483
   0.86049119  0.26416355  0.50001446
   0.80369204  0.06907168  0.49995080
   0.92958424  0.19498155  0.49994446
   0.92962904  0.06900902  0.50003028
   0.06783659  0.59737365  0.49995374
   0.06782304  0.47147057  0.49994398
   0.19385520  0.59744099  0.50002961
   0.13696155  0.40233837  0.50000590
   0.26296629  0.52830668  0.49995610
   0.26301841  0.40232705  0.50001239
   0.40122780  0.59742577  0.50004091