       N       E                     dE             d eps       ncg     rms          rms(c)
DAV:   1     0.783130891594E+04    0.78313E+04   -0.27133E+05 12104   0.105E+03
DAV:   2     0.999562230728E+03   -0.68317E+04   -0.58640E+04 14864   0.253E+02
DAV:   3    -0.740869074092E+03   -0.17404E+04   -0.17099E+04 17496   0.144E+02
DAV:   4    -0.903851382603E+03   -0.16298E+03   -0.15685E+03 19400   0.612E+01
DAV:   5    -0.909962827554E+03   -0.61114E+01   -0.57248E+01 20072   0.137E+01    0.126E+02
RMM:   6    -0.867306551129E+03    0.42656E+02   -0.29028E+03 14107   0.116E+02    0.107E+02
RMM:   7    -0.589954943109E+03    0.27735E+03   -0.68240E+02 12215   0.651E+01    0.492E+01
RMM:   8    -0.651014521433E+03   -0.61060E+02   -0.44545E+02 13329   0.416E+01    0.550E+01
RMM:   9    -0.604862673574E+03    0.46152E+02   -0.45247E+01 12900   0.166E+01    0.245E+01
RMM:  10    -0.643163524055E+03   -0.38301E+02   -0.28338E+01 12126   0.127E+01    0.179E+01
RMM:  11    -0.692355160398E+03   -0.49192E+02   -0.28813E+01 12376   0.987E+00    0.145E+01
RMM:  12    -0.732740086934E+03   -0.40385E+02   -0.20048E+01 12753   0.550E+00    0.103E+01
RMM:  13    -0.773581392393E+03   -0.40841E+02   -0.26885E+01 12825   0.689E+00    0.820E+00
RMM:  14    -0.791708082367E+03   -0.18127E+02   -0.11065E+01 12966   0.476E+00    0.997E+00
RMM:  15    -0.800984397135E+03   -0.92763E+01   -0.44423E+00 12564   0.250E+00    0.787E+00
RMM:  16    -0.809686357703E+03   -0.87020E+01   -0.40483E+00 12228   0.310E+00    0.565E+00
RMM:  17    -0.815178404074E+03   -0.54920E+01   -0.31155E+00 12856   0.240E+00    0.348E+00
RMM:  18    -0.819468266906E+03   -0.42899E+01   -0.15942E+00 13059   0.153E+00    0.313E+00
RMM:  19    -0.822831026230E+03   -0.33628E+01   -0.65651E-01 13638   0.108E+00    0.232E+00
RMM:  20    -0.824273925374E+03   -0.14429E+01   -0.25114E-01 13294   0.692E-01    0.139E+00
RMM:  21    -0.824966285556E+03   -0.69236E+00   -0.14056E-01 13679   0.591E-01    0.868E-01
RMM:  22    -0.825642009780E+03   -0.67572E+00   -0.83764E-02 14154   0.377E-01    0.606E-01
RMM:  23    -0.826160570279E+03   -0.51856E+00   -0.32280E-02 14427   0.229E-01    0.566E-01
RMM:  24    -0.826774858116E+03   -0.61429E+00   -0.23000E-02 13123   0.232E-01    0.427E-01
RMM:  25    -0.827326427874E+03   -0.55157E+00   -0.16194E-02 13424   0.208E-01    0.278E-01
RMM:  26    -0.827636275952E+03   -0.30985E+00   -0.50813E-03 13253   0.119E-01    0.221E-01
RMM:  27    -0.827861344926E+03   -0.22507E+00   -0.26795E-03 13022   0.922E-02    0.169E-01
RMM:  28    -0.828123095973E+03   -0.26175E+00   -0.23162E-03 12652   0.654E-02    0.135E-01
RMM:  29    -0.828251619496E+03   -0.12852E+00   -0.14370E-03 12953   0.581E-02    0.122E-01
RMM:  30    -0.828356711222E+03   -0.10509E+00   -0.17248E-03 12755   0.462E-02    0.577E-02
RMM:  31    -0.828386543547E+03   -0.29832E-01   -0.85035E-04 13255   0.329E-02    0.434E-02
RMM:  32    -0.828392881009E+03   -0.63375E-02   -0.32083E-04 12876   0.250E-02    0.405E-02
RMM:  33    -0.828396341323E+03   -0.34603E-02   -0.21976E-04 12943   0.183E-02    0.270E-02
RMM:  34    -0.828396990228E+03   -0.64890E-03   -0.66515E-05 12329   0.126E-02    0.224E-02
RMM:  35    -0.828397236192E+03   -0.24596E-03   -0.33760E-05 11382   0.959E-03    0.104E-02
RMM:  36    -0.828397466209E+03   -0.23002E-03   -0.15508E-05 10897   0.648E-03    0.107E-02
RMM:  37    -0.828397729775E+03   -0.26357E-03   -0.16570E-05 10356   0.579E-03    0.621E-03
RMM:  38    -0.828398145234E+03   -0.41546E-03   -0.10796E-05  9667   0.451E-03    0.536E-03
RMM:  39    -0.828398343307E+03   -0.19807E-03   -0.28002E-06  8275   0.323E-03    0.445E-03
RMM:  40    -0.828398549568E+03   -0.20626E-03   -0.18977E-06  7879   0.253E-03    0.377E-03
RMM:  41    -0.828398726403E+03   -0.17684E-03   -0.11665E-06  7506   0.226E-03    0.315E-03
RMM:  42    -0.828398992328E+03   -0.26592E-03   -0.18528E-06  7904   0.231E-03    0.143E-03
RMM:  43    -0.828399136357E+03   -0.14403E-03   -0.12455E-06  7766   0.171E-03    0.113E-03
RMM:  44    -0.828399215094E+03   -0.78738E-04   -0.86475E-07  7487   0.155E-03    0.110E-03
RMM:  45    -0.828399261727E+03   -0.46632E-04   -0.66933E-07  7341   0.130E-03    0.727E-04
RMM:  46    -0.828399291676E+03   -0.29949E-04   -0.55129E-07  7115   0.114E-03    0.718E-04
RMM:  47    -0.828399308240E+03   -0.16564E-04   -0.41039E-07  6931   0.977E-04    0.425E-04
RMM:  48    -0.828399313462E+03   -0.52215E-05   -0.24631E-07  6195   0.812E-04    0.447E-04
RMM:  49    -0.828399316022E+03   -0.25609E-05   -0.17704E-07  5844   0.650E-04    0.194E-04
RMM:  50    -0.828399317381E+03   -0.13590E-05   -0.11011E-07  5332   0.537E-04    0.169E-04
RMM:  51    -0.828399318059E+03   -0.67739E-06   -0.60793E-08  4715   0.421E-04
   1 F= -.83767036E+03 E0= -.83762098E+03  d E =-.837670E+03  mag=     0.0002
       N       E                     dE             d eps       ncg     rms          rms(c)
DAV:   1    -0.828394045437E+03    0.52719E-02   -0.12504E+00 13112   0.144E+00    0.105E+00
RMM:   2    -0.828404949783E+03   -0.10904E-01   -0.59282E-02 15521   0.396E-01    0.686E-01
RMM:   3    -0.828415003228E+03   -0.10053E-01   -0.23992E-02 13357   0.328E-01    0.110E+00
RMM:   4    -0.828395584338E+03    0.19419E-01   -0.14941E-02 12926   0.311E-01    0.229E-01
RMM:   5    -0.828394903161E+03    0.68118E-03   -0.18140E-03 13271   0.103E-01    0.118E-01
RMM:   6    -0.828395011908E+03   -0.10875E-03   -0.83131E-04 13412   0.648E-02    0.129E-01
RMM:   7    -0.828394851738E+03    0.16017E-03   -0.41487E-04 13429   0.441E-02    0.692E-02
RMM:   8    -0.828394802731E+03    0.49007E-04   -0.14935E-04 12640   0.255E-02    0.311E-02
RMM:   9    -0.828394797058E+03    0.56727E-05   -0.32696E-05 12310   0.106E-02    0.123E-02
RMM:  10    -0.828394801294E+03   -0.42358E-05   -0.12119E-05 11173   0.571E-03    0.135E-02
RMM:  11    -0.828394802643E+03   -0.13489E-05   -0.68949E-06 10073   0.577E-03    0.961E-03
RMM:  12    -0.828394805100E+03   -0.24569E-05   -0.37654E-06  9020   0.453E-03    0.487E-03
RMM:  13    -0.828394807100E+03   -0.20001E-05   -0.11943E-06  7461   0.278E-03    0.238E-03
RMM:  14    -0.828394810035E+03   -0.29347E-05   -0.60674E-07  7416   0.186E-03    0.149E-03
RMM:  15    -0.828394812828E+03   -0.27927E-05   -0.43315E-07  7348   0.138E-03    0.163E-03
RMM:  16    -0.828394815971E+03   -0.31431E-05   -0.36143E-07  6850   0.118E-03    0.102E-03
RMM:  17    -0.828394818420E+03   -0.24494E-05   -0.27097E-07  6512   0.986E-04    0.692E-04
RMM:  18    -0.828394819871E+03   -0.14512E-05   -0.18455E-07  6197   0.835E-04    0.529E-04
RMM:  19    -0.828394821895E+03   -0.20238E-05   -0.15704E-07  6019   0.658E-04    0.454E-04
RMM:  20    -0.828394823968E+03   -0.20728E-05   -0.14885E-07  6007   0.667E-04    0.453E-04
RMM:  21    -0.828394826073E+03   -0.21051E-05   -0.17596E-07  5953   0.609E-04    0.279E-04
RMM:  22    -0.828394826533E+03   -0.46055E-06   -0.96841E-08  5495   0.600E-04
   2 F= -.83766620E+03 E0= -.83761685E+03  d E =0.416894E-02  mag=     0.0000
       N       E                     dE             d eps       ncg     rms          rms(c)
DAV:   1    -0.828400547339E+03   -0.57213E-02   -0.52888E-01 12736   0.933E-01    0.687E-01
RMM:   2    -0.828404922086E+03   -0.43747E-02   -0.24832E-02 15545   0.257E-01    0.438E-01
RMM:   3    -0.828409651992E+03   -0.47299E-02   -0.10103E-02 13358   0.213E-01    0.723E-01
RMM:   4    -0.828401240009E+03    0.84120E-02   -0.62433E-03 12954   0.201E-01    0.151E-01
RMM:   5    -0.828400929417E+03    0.31059E-03   -0.73889E-04 13266   0.656E-02    0.777E-02
RMM:   6    -0.828400958745E+03   -0.29328E-04   -0.36791E-04 13258   0.437E-02    0.790E-02
RMM:   7    -0.828400902155E+03    0.56590E-04   -0.18203E-04 13330   0.293E-02    0.381E-02
RMM:   8    -0.828400890226E+03    0.11929E-04   -0.52541E-05 12000   0.146E-02    0.217E-02
RMM:   9    -0.828400886849E+03    0.33774E-05   -0.12107E-05 10307   0.720E-03    0.862E-03
RMM:  10    -0.828400887889E+03   -0.10405E-05   -0.50757E-06  9439   0.458E-03    0.799E-03
RMM:  11    -0.828400888993E+03   -0.11036E-05   -0.36007E-06  9092   0.432E-03    0.655E-03
RMM:  12    -0.828400890188E+03   -0.11956E-05   -0.18307E-06  7641   0.329E-03    0.356E-03
RMM:  13    -0.828400890914E+03   -0.72528E-06   -0.78825E-07  7417   0.221E-03
   3 F= -.83767205E+03 E0= -.83762268E+03  d E =-.169034E-02  mag=     0.0000
       N       E                     dE             d eps       ncg     rms          rms(c)
DAV:   1    -0.828401053385E+03   -0.16320E-03   -0.16431E-01 12912   0.466E-01    0.229E-01
RMM:   2    -0.828401828948E+03   -0.77556E-03   -0.76162E-03 14757   0.131E-01    0.122E-01
RMM:   3    -0.828402332688E+03   -0.50374E-03   -0.11714E-03 13323   0.693E-02    0.216E-01
RMM:   4    -0.828401608081E+03    0.72461E-03   -0.49624E-04 12844   0.549E-02    0.627E-02
RMM:   5    -0.828401594192E+03    0.13889E-04   -0.89805E-05 12594   0.195E-02    0.495E-02
RMM:   6    -0.828401594532E+03   -0.34031E-06   -0.89808E-05 12845   0.170E-02    0.368E-02
RMM:   7    -0.828401587293E+03    0.72392E-05   -0.57347E-05 12696   0.147E-02    0.187E-02
RMM:   8    -0.828401584986E+03    0.23074E-05   -0.10594E-05 10208   0.681E-03    0.113E-02
RMM:   9    -0.828401583223E+03    0.17626E-05   -0.21358E-06  7999   0.334E-03    0.581E-03
RMM:  10    -0.828401584153E+03   -0.92942E-06   -0.49815E-06  8575   0.321E-03
   4 F= -.83767300E+03 E0= -.83762358E+03  d E =-.947757E-03  mag=     0.0000
       N       E                     dE             d eps       ncg     rms          rms(c)
DAV:   1    -0.828401511379E+03    0.71845E-04   -0.23562E-02 12928   0.177E-01    0.876E-02
RMM:   2    -0.828401627567E+03   -0.11619E-03   -0.11384E-03 14672   0.527E-02    0.475E-02
RMM:   3    -0.828401703357E+03   -0.75790E-04   -0.19243E-04 12940   0.285E-02    0.833E-02
RMM:   4    -0.828401596400E+03    0.10696E-03   -0.76070E-05 11802   0.217E-02    0.243E-02
RMM:   5    -0.828401594015E+03    0.23854E-05   -0.14659E-05 10463   0.790E-03    0.191E-02
RMM:   6    -0.828401593719E+03    0.29596E-06   -0.13140E-05 11125   0.661E-03    0.133E-02
RMM:   7    -0.828401593229E+03    0.48931E-06   -0.91361E-06 10695   0.551E-03
   5 F= -.83767311E+03 E0= -.83762367E+03  d E =-.105119E-02  mag=     0.0000
       N       E                     dE             d eps       ncg     rms          rms(c)
DAV:   1    -0.828401877015E+03   -0.28330E-03   -0.26959E-02 12752   0.177E-01    0.747E-02
RMM:   2    -0.828401998681E+03   -0.12167E-03   -0.13214E-03 14271   0.545E-02    0.411E-02
RMM:   3    -0.828402056036E+03   -0.57355E-04   -0.19162E-04 13031   0.261E-02    0.699E-02
RMM:   4    -0.828401985104E+03    0.70933E-04   -0.54113E-05 11243   0.171E-02    0.235E-02
RMM:   5    -0.828401984091E+03    0.10125E-05   -0.12203E-05 10968   0.508E-03    0.204E-02
RMM:   6    -0.828401983116E+03    0.97541E-06   -0.83531E-06 10077   0.530E-03
   6 F= -.83767361E+03 E0= -.83762416E+03  d E =-.507151E-03  mag=     0.0000
       N       E                     dE             d eps       ncg     rms          rms(c)
DAV:   1    -0.828401938830E+03    0.45261E-04   -0.24193E-01 12320   0.528E-01    0.221E-01
RMM:   2    -0.828402989874E+03   -0.10510E-02   -0.11025E-02 14208   0.156E-01    0.120E-01
RMM:   3    -0.828403454036E+03   -0.46416E-03   -0.14927E-03 13718   0.708E-02    0.202E-01
RMM:   4    -0.828402848013E+03    0.60602E-03   -0.45613E-04 12840   0.488E-02    0.723E-02
RMM:   5    -0.828402835847E+03    0.12166E-04   -0.97855E-05 12963   0.161E-02    0.629E-02
RMM:   6    -0.828402822281E+03    0.13566E-04   -0.84162E-05 12473   0.142E-02    0.393E-02
RMM:   7    -0.828402825212E+03   -0.29308E-05   -0.88369E-05 13687   0.132E-02    0.217E-02
RMM:   8    -0.828402822091E+03    0.31206E-05   -0.11929E-05 10144   0.718E-03    0.164E-02
RMM:   9    -0.828402819088E+03    0.30037E-05   -0.37990E-06  9119   0.482E-03    0.964E-03
RMM:  10    -0.828402818446E+03    0.64114E-06   -0.13978E-05 10267   0.368E-03    0.534E-03
RMM:  11    -0.828402818842E+03   -0.39538E-06   -0.26767E-06  7987   0.371E-03
   7 F= -.83767480E+03 E0= -.83762533E+03  d E =-.168966E-02  mag=     0.0000
       N       E                     dE             d eps       ncg     rms          rms(c)
DAV:   1    -0.828399471865E+03    0.33466E-02   -0.97503E-01 12128   0.106E+00    0.447E-01
RMM:   2    -0.828403682403E+03   -0.42105E-02   -0.43594E-02 14230   0.305E-01    0.233E-01
RMM:   3    -0.828405708553E+03   -0.20261E-02   -0.58481E-03 13719   0.140E-01    0.415E-01
RMM:   4    -0.828403119050E+03    0.25895E-02   -0.18045E-03 12981   0.975E-02    0.141E-01
RMM:   5    -0.828403078075E+03    0.40975E-04   -0.36936E-04 14635   0.274E-02    0.122E-01
RMM:   6    -0.828403034675E+03    0.43400E-04   -0.33401E-04 13254   0.278E-02    0.842E-02
RMM:   7    -0.828403038334E+03   -0.36587E-05   -0.33664E-04 13771   0.300E-02    0.496E-02
RMM:   8    -0.828403019061E+03    0.19273E-04   -0.65588E-05 12178   0.149E-02    0.302E-02
RMM:   9    -0.828403008589E+03    0.10473E-04   -0.15604E-05 10130   0.891E-03    0.191E-02
RMM:  10    -0.828403003336E+03    0.52524E-05   -0.22202E-05 11747   0.627E-03    0.126E-02
RMM:  11    -0.828403005395E+03   -0.20591E-05   -0.23673E-05 12021   0.698E-03    0.110E-02
RMM:  12    -0.828403004446E+03    0.94906E-06   -0.24932E-06  8250   0.352E-03
   8 F= -.83767565E+03 E0= -.83762615E+03  d E =-.254658E-02  mag=     0.0000
       N       E                     dE             d eps       ncg     rms          rms(c)
DAV:   1    -0.828402825255E+03    0.18014E-03   -0.12249E-01 12528   0.369E-01    0.150E-01
RMM:   2    -0.828403319060E+03   -0.49380E-03   -0.57505E-03 14189   0.109E-01    0.591E-02
RMM:   3    -0.828403403687E+03   -0.84627E-04   -0.60375E-04 14058   0.383E-02    0.835E-02
RMM:   4    -0.828403332367E+03    0.71320E-04   -0.10615E-04 12170   0.203E-02    0.526E-02
RMM:   5    -0.828403324050E+03    0.83167E-05   -0.24481E-05 11463   0.800E-03    0.439E-02
RMM:   6    -0.828403317511E+03    0.65391E-05   -0.43443E-05 12296   0.969E-03    0.270E-02
RMM:   7    -0.828403322448E+03   -0.49371E-05   -0.53147E-05 13207   0.947E-03    0.147E-02
RMM:   8    -0.828403320676E+03    0.17728E-05   -0.49408E-06  9348   0.519E-03    0.107E-02
RMM:   9    -0.828403319454E+03    0.12217E-05   -0.12556E-06  7470   0.271E-03    0.808E-03
RMM:  10    -0.828403319475E+03   -0.21624E-07   -0.11671E-05  9675   0.344E-03    0.358E-03
RMM:  11    -0.828403320010E+03   -0.53410E-06   -0.17615E-06  7550   0.312E-03
   9 F= -.83767631E+03 E0= -.83762677E+03  d E =-.654375E-03  mag=     0.0000
       N       E                     dE             d eps       ncg     rms          rms(c)
DAV:   1    -0.828403045100E+03    0.27438E-03   -0.94611E-02 12608   0.324E-01    0.132E-01
RMM:   2    -0.828403427934E+03   -0.38283E-03   -0.44577E-03 14163   0.959E-02    0.522E-02
RMM:   3    -0.828403487979E+03   -0.60045E-04   -0.46923E-04 14032   0.336E-02    0.719E-02
RMM:   4    -0.828403437501E+03    0.50477E-04   -0.80436E-05 11888   0.177E-02    0.464E-02
RMM:   5    -0.828403431196E+03    0.63056E-05   -0.18508E-05 11035   0.715E-03    0.392E-02
RMM:   6    -0.828403425522E+03    0.56738E-05   -0.32511E-05 12033   0.849E-03    0.244E-02
RMM:   7    -0.828403428845E+03   -0.33233E-05   -0.45195E-05 12951   0.875E-03    0.131E-02
RMM:   8    -0.828403427375E+03    0.14706E-05   -0.42209E-06  9259   0.491E-03    0.955E-03
RMM:   9    -0.828403426387E+03    0.98794E-06   -0.96388E-07  7386   0.240E-03
  10 F= -.83767671E+03 E0= -.83762714E+03  d E =-.105640E-02  mag=     0.0000
       N       E                     dE             d eps       ncg     rms          rms(c)
DAV:   1    -0.828401616771E+03    0.18106E-02   -0.37972E-01 12128   0.650E-01    0.267E-01
RMM:   2    -0.828403190671E+03   -0.15739E-02   -0.18287E-02 14114   0.194E-01    0.110E-01
RMM:   3    -0.828403493014E+03   -0.30234E-03   -0.19855E-03 14127   0.719E-02    0.161E-01
RMM:   4    -0.828403216555E+03    0.27646E-03   -0.36418E-04 12908   0.383E-02    0.938E-02
RMM:   5    -0.828403192396E+03    0.24159E-04   -0.86449E-05 13179   0.142E-02    0.800E-02
RMM:   6    -0.828403166951E+03    0.25445E-04   -0.10925E-04 12817   0.159E-02    0.520E-02
RMM:   7    -0.828403175641E+03   -0.86908E-05   -0.19356E-04 14216   0.178E-02    0.253E-02
RMM:   8    -0.828403170989E+03    0.46527E-05   -0.19480E-05 10371   0.101E-02    0.189E-02
RMM:   9    -0.828403167180E+03    0.38088E-05   -0.38421E-06  9121   0.397E-03    0.147E-02
RMM:  10    -0.828403162833E+03    0.43473E-05   -0.26673E-05 12064   0.519E-03    0.804E-03
RMM:  11    -0.828403163174E+03   -0.34153E-06   -0.65793E-06  9705   0.528E-03
  11 F= -.83767703E+03 E0= -.83762740E+03  d E =-.137929E-02  mag=     0.0000
       N       E                     dE             d eps       ncg     rms          rms(c)
DAV:   1    -0.828402451517E+03    0.71132E-03   -0.26067E-01 12128   0.528E-01    0.262E-01
RMM:   2    -0.828403650397E+03   -0.11989E-02   -0.13388E-02 13963   0.165E-01    0.109E-01
RMM:   3    -0.828404069288E+03   -0.41889E-03   -0.16239E-03 13997   0.681E-02    0.183E-01
RMM:   4    -0.828403621961E+03    0.44733E-03   -0.39261E-04 12932   0.438E-02    0.829E-02
RMM:   5    -0.828403603263E+03    0.18699E-04   -0.74791E-05 13509   0.132E-02    0.694E-02
RMM:   6    -0.828403591610E+03    0.11653E-04   -0.79560E-05 12409   0.148E-02    0.508E-02
RMM:   7    -0.828403593671E+03   -0.20612E-05   -0.11530E-04 13637   0.157E-02    0.281E-02
RMM:   8    -0.828403587664E+03    0.60075E-05   -0.20079E-05 10586   0.967E-03    0.162E-02
RMM:   9    -0.828403585316E+03    0.23476E-05   -0.44414E-06  9329   0.462E-03    0.112E-02
RMM:  10    -0.828403583963E+03    0.13529E-05   -0.71512E-06  9810   0.405E-03    0.946E-03
RMM:  11    -0.828403584049E+03   -0.85653E-07   -0.64183E-06 10193   0.449E-03
  12 F= -.83767810E+03 E0= -.83762842E+03  d E =-.106543E-02  mag=     0.0000
       N       E                     dE             d eps       ncg     rms          rms(c)
DAV:   1    -0.828403024653E+03    0.55931E-03   -0.12977E-01 12288   0.372E-01    0.184E-01
RMM:   2    -0.828403618969E+03   -0.59432E-03   -0.66405E-03 13937   0.117E-01    0.751E-02
RMM:   3    -0.828403833378E+03   -0.21441E-03   -0.80961E-04 13929   0.481E-02    0.130E-01
RMM:   4    -0.828403606204E+03    0.22717E-03   -0.19473E-04 12639   0.312E-02    0.580E-02
RMM:   5    -0.828403596707E+03    0.94962E-05   -0.37388E-05 12883   0.926E-03    0.479E-02
RMM:   6    -0.828403592962E+03    0.37453E-05   -0.45377E-05 12097   0.107E-02    0.349E-02
RMM:   7    -0.828403593413E+03   -0.45083E-06   -0.51870E-05 12932   0.113E-02    0.189E-02
RMM:   8    -0.828403590706E+03    0.27065E-05   -0.91205E-06  9987   0.655E-03    0.112E-02
RMM:   9    -0.828403589758E+03    0.94886E-06   -0.20714E-06  8175   0.357E-03
  13 F= -.83767856E+03 E0= -.83762884E+03  d E =-.152325E-02  mag=     0.0000
       N       E                     dE             d eps       ncg     rms          rms(c)
DAV:   1    -0.828400613615E+03    0.29771E-02   -0.51941E-01 12128   0.745E-01    0.368E-01
RMM:   2    -0.828402994922E+03   -0.23813E-02   -0.26691E-02 13987   0.233E-01    0.151E-01
RMM:   3    -0.828403872972E+03   -0.87805E-03   -0.32227E-03 14051   0.960E-02    0.263E-01
RMM:   4    -0.828402939263E+03    0.93371E-03   -0.79010E-04 13020   0.623E-02    0.117E-01
RMM:   5    -0.828402902999E+03    0.36264E-04   -0.15361E-04 14235   0.186E-02    0.969E-02
RMM:   6    -0.828402881925E+03    0.21074E-04   -0.18003E-04 13172   0.212E-02    0.688E-02
RMM:   7    -0.828402882620E+03   -0.69516E-06   -0.20929E-04 13689   0.232E-02    0.379E-02
RMM:   8    -0.828402873016E+03    0.96048E-05   -0.38647E-05 11184   0.131E-02    0.225E-02
RMM:   9    -0.828402867950E+03    0.50653E-05   -0.82700E-06  9933   0.609E-03    0.157E-02
RMM:  10    -0.828402864213E+03    0.37375E-05   -0.20551E-05 11692   0.549E-03    0.120E-02
RMM:  11    -0.828402864226E+03   -0.13490E-07   -0.91088E-06 10409   0.574E-03
  14 F= -.83767873E+03 E0= -.83762895E+03  d E =-.169558E-02  mag=     0.0000
       N       E                     dE             d eps       ncg     rms          rms(c)
DAV:   1    -0.828402940347E+03   -0.76134E-04   -0.69019E-02 12416   0.272E-01    0.131E-01
RMM:   2    -0.828403256500E+03   -0.31615E-03   -0.35694E-03 13797   0.871E-02    0.543E-02
RMM:   3    -0.828403364514E+03   -0.10801E-03   -0.46169E-04 13817   0.364E-02    0.916E-02
RMM:   4    -0.828403255123E+03    0.10939E-03   -0.10419E-04 12334   0.229E-02    0.426E-02
RMM:   5    -0.828403251690E+03    0.34326E-05   -0.21261E-05 11266   0.781E-03    0.362E-02
RMM:   6    -0.828403249609E+03    0.20817E-05   -0.21392E-05 11319   0.764E-03    0.254E-02
RMM:   7    -0.828403253249E+03   -0.36399E-05   -0.33655E-05 12485   0.833E-03    0.140E-02
RMM:   8    -0.828403252591E+03    0.65762E-06   -0.51016E-06  9483   0.527E-03
  15 F= -.83767879E+03 E0= -.83762904E+03  d E =-.175650E-02  mag=     0.0000
       N       E                     dE             d eps       ncg     rms          rms(c)
DAV:   1    -0.828401644755E+03    0.16085E-02   -0.41218E-01 12160   0.671E-01    0.328E-01
RMM:   2    -0.828403558516E+03   -0.19138E-02   -0.20953E-02 13640   0.220E-01    0.138E-01
RMM:   3    -0.828404378892E+03   -0.82038E-03   -0.31322E-03 14023   0.967E-02    0.249E-01
RMM:   4    -0.828403533454E+03    0.84544E-03   -0.70825E-04 13032   0.599E-02    0.105E-01
RMM:   5    -0.828403510247E+03    0.23207E-04   -0.15052E-04 14518   0.162E-02    0.904E-02
RMM:   6    -0.828403489441E+03    0.20806E-04   -0.10249E-04 12851   0.170E-02    0.675E-02
RMM:   7    -0.828403497135E+03   -0.76936E-05   -0.21047E-04 14058   0.207E-02    0.397E-02
RMM:   8    -0.828403485792E+03    0.11343E-04   -0.40338E-05 11353   0.131E-02    0.214E-02
RMM:   9    -0.828403481013E+03    0.47781E-05   -0.86174E-06 10160   0.554E-03    0.157E-02
RMM:  10    -0.828403475994E+03    0.50199E-05   -0.94314E-06 10227   0.405E-03    0.100E-02
RMM:  11    -0.828403475766E+03    0.22714E-06   -0.12266E-05 11678   0.527E-03    0.864E-03
RMM:  12    -0.828403475335E+03    0.43158E-06   -0.21259E-06  7798   0.314E-03
  16 F= -.83767991E+03 E0= -.83763010E+03  d E =-.112391E-02  mag=     0.0000
       N       E                     dE             d eps       ncg     rms          rms(c)
DAV:   1    -0.828402740908E+03    0.73486E-03   -0.12283E-01 12192   0.366E-01    0.179E-01
RMM:   2    -0.828403313412E+03   -0.57250E-03   -0.63258E-03 13727   0.119E-01    0.744E-02
RMM:   3    -0.828403539531E+03   -0.22612E-03   -0.90056E-04 13911   0.507E-02    0.132E-01
RMM:   4    -0.828403305281E+03    0.23425E-03   -0.19984E-04 12613   0.321E-02    0.571E-02
RMM:   5    -0.828403298343E+03    0.69381E-05   -0.42672E-05 12750   0.991E-03    0.490E-02
RMM:   6    -0.828403290841E+03    0.75024E-05   -0.30066E-05 11838   0.922E-03    0.350E-02
RMM:   7    -0.828403294405E+03   -0.35642E-05   -0.63375E-05 13432   0.110E-02    0.194E-02
RMM:   8    -0.828403291988E+03    0.24171E-05   -0.96536E-06 10083   0.693E-03    0.117E-02
RMM:   9    -0.828403290574E+03    0.14135E-05   -0.18582E-06  7808   0.319E-03    0.815E-03
RMM:  10    -0.828403289499E+03    0.10751E-05   -0.31685E-06  8202   0.309E-03    0.553E-03
RMM:  11    -0.828403289645E+03   -0.14568E-06   -0.35645E-06  8568   0.331E-03
  17 F= -.83768021E+03 E0= -.83763037E+03  d E =-.142654E-02  mag=     0.0000
       N       E                     dE             d eps       ncg     rms          rms(c)
DAV:   1    -0.828400066051E+03    0.32234E-02   -0.49119E-01 12048   0.733E-01    0.360E-01
RMM:   2    -0.828402350859E+03   -0.22848E-02   -0.25380E-02 13807   0.236E-01    0.146E-01
RMM:   3    -0.828403202355E+03   -0.85150E-03   -0.34636E-03 14105   0.974E-02    0.256E-01
RMM:   4    -0.828402326828E+03    0.87553E-03   -0.74845E-04 13009   0.616E-02    0.116E-01
RMM:   5    -0.828402296817E+03    0.30012E-04   -0.15568E-04 14198   0.188E-02    0.982E-02
RMM:   6    -0.828402268488E+03    0.28329E-04   -0.12617E-04 12990   0.184E-02    0.708E-02
RMM:   7    -0.828402279398E+03   -0.10910E-04   -0.22925E-04 14090   0.212E-02    0.402E-02
RMM:   8    -0.828402268152E+03    0.11246E-04   -0.40961E-05 11547   0.130E-02    0.240E-02
RMM:   9    -0.828402262391E+03    0.57608E-05   -0.94786E-06  9993   0.648E-03    0.165E-02
RMM:  10    -0.828402257379E+03    0.50121E-05   -0.13354E-05 11093   0.532E-03    0.123E-02
RMM:  11    -0.828402256611E+03    0.76796E-06   -0.12923E-05 11426   0.586E-03    0.719E-03
RMM:  12    -0.828402256605E+03    0.56170E-08   -0.17348E-06  7695   0.272E-03
  18 F= -.83768015E+03 E0= -.83763024E+03  d E =-.136278E-02  mag=     0.0000
       N       E                     dE             d eps       ncg     rms          rms(c)
DAV:   1    -0.828402108948E+03    0.14766E-03   -0.20226E-01 12112   0.471E-01    0.225E-01
RMM:   2    -0.828403050335E+03   -0.94139E-03   -0.10618E-02 13794   0.153E-01    0.905E-02
RMM:   3    -0.828403349647E+03   -0.29931E-03   -0.13886E-03 14132   0.585E-02    0.150E-01
RMM:   4    -0.828403051672E+03    0.29798E-03   -0.26939E-04 12813   0.365E-02    0.741E-02
RMM:   5    -0.828403038301E+03    0.13371E-04   -0.58009E-05 12814   0.127E-02    0.628E-02
RMM:   6    -0.828403027285E+03    0.11017E-04   -0.60503E-05 12497   0.121E-02    0.435E-02
RMM:   7    -0.828403033787E+03   -0.65022E-05   -0.96652E-05 13709   0.143E-02    0.245E-02
RMM:   8    -0.828403029816E+03    0.39708E-05   -0.14831E-05 10548   0.789E-03    0.157E-02
RMM:   9    -0.828403027203E+03    0.26135E-05   -0.36996E-06  9078   0.447E-03    0.107E-02
RMM:  10    -0.828403024625E+03    0.25774E-05   -0.81603E-06  9745   0.375E-03    0.615E-03
RMM:  11    -0.828403024611E+03    0.13970E-07   -0.43592E-06  9346   0.388E-03
  19 F= -.83768030E+03 E0= -.83763043E+03  d E =-.150892E-02  mag=     0.0000
       N       E                     dE             d eps       ncg     rms          rms(c)
DAV:   1    -0.828402108351E+03    0.91627E-03   -0.23325E-01 12128   0.544E-01    0.202E-01
RMM:   2    -0.828403064194E+03   -0.95584E-03   -0.11423E-02 13720   0.175E-01    0.740E-02
RMM:   3    -0.828403260270E+03   -0.19608E-03   -0.17103E-03 14743   0.585E-02    0.109E-01
RMM:   4    -0.828403166510E+03    0.93760E-04   -0.18076E-04 12500   0.284E-02    0.753E-02
RMM:   5    -0.828403146102E+03    0.20408E-04   -0.45495E-05 13388   0.985E-03    0.601E-02
RMM:   6    -0.828403141308E+03    0.47944E-05   -0.61016E-05 12788   0.141E-02    0.458E-02
RMM:   7    -0.828403145598E+03   -0.42905E-05   -0.12328E-04 14396   0.149E-02    0.258E-02
RMM:   8    -0.828403140303E+03    0.52949E-05   -0.15752E-05 10365   0.911E-03    0.177E-02
RMM:   9    -0.828403136008E+03    0.42953E-05   -0.32663E-06  8940   0.387E-03    0.132E-02
RMM:  10    -0.828403132213E+03    0.37950E-05   -0.14476E-05 12186   0.468E-03    0.762E-03
RMM:  11    -0.828403131852E+03    0.36045E-06   -0.45177E-06  9496   0.435E-03
  20 F= -.83768106E+03 E0= -.83763113E+03  d E =-.764118E-03  mag=     0.0000
       N       E                     dE             d eps       ncg     rms          rms(c)
DAV:   1    -0.828402488710E+03    0.64350E-03   -0.95676E-02 12344   0.348E-01    0.130E-01
RMM:   2    -0.828402881497E+03   -0.39279E-03   -0.46379E-03 13672   0.113E-01    0.474E-02
RMM:   3    -0.828402969075E+03   -0.87578E-04   -0.72412E-04 14381   0.398E-02    0.746E-02
RMM:   4    -0.828402922904E+03    0.46172E-04   -0.89214E-05 12017   0.203E-02    0.478E-02
RMM:   5    -0.828402915667E+03    0.72363E-05   -0.23129E-05 12472   0.663E-03    0.389E-02
RMM:   6    -0.828402912737E+03    0.29307E-05   -0.22095E-05 12119   0.848E-03    0.300E-02
RMM:   7    -0.828402914278E+03   -0.15411E-05   -0.55292E-05 13672   0.104E-02    0.154E-02
RMM:   8    -0.828402912909E+03    0.13685E-05   -0.78323E-06  9884   0.683E-03    0.113E-02
RMM:   9    -0.828402911643E+03    0.12666E-05   -0.11666E-06  7468   0.250E-03    0.911E-03
RMM:  10    -0.828402909897E+03    0.17458E-05   -0.55545E-06  9342   0.329E-03    0.467E-03
RMM:  11    -0.828402909937E+03   -0.40731E-07   -0.26786E-06  8162   0.319E-03
  21 F= -.83768126E+03 E0= -.83763129E+03  d E =-.960076E-03  mag=     0.0000
       N       E                     dE             d eps       ncg     rms          rms(c)
DAV:   1    -0.828402189502E+03    0.72040E-03   -0.22460E-01 12032   0.543E-01    0.190E-01
RMM:   2    -0.828403109944E+03   -0.92044E-03   -0.10716E-02 13701   0.175E-01    0.787E-02
RMM:   3    -0.828403413800E+03   -0.30386E-03   -0.17591E-03 14412   0.638E-02    0.139E-01
RMM:   4    -0.828403189014E+03    0.22479E-03   -0.25239E-04 12740   0.352E-02    0.728E-02
RMM:   5    -0.828403174663E+03    0.14352E-04   -0.62347E-05 13610   0.119E-02    0.610E-02
RMM:   6    -0.828403164704E+03    0.99590E-05   -0.55122E-05 12813   0.132E-02    0.438E-02
RMM:   7    -0.828403171789E+03   -0.70858E-05   -0.11915E-04 14304   0.160E-02    0.281E-02
RMM:   8    -0.828403167263E+03    0.45268E-05   -0.21408E-05 10738   0.105E-02    0.181E-02
RMM:   9    -0.828403163522E+03    0.37404E-05   -0.33676E-06  8763   0.362E-03    0.137E-02
RMM:  10    -0.828403159313E+03    0.42095E-05   -0.13571E-05 11851   0.424E-03    0.761E-03
RMM:  11    -0.828403159184E+03    0.12918E-06   -0.48368E-06  9845   0.469E-03
  22 F= -.83768210E+03 E0= -.83763207E+03  d E =-.844558E-03  mag=     0.0000
       N       E                     dE             d eps       ncg     rms          rms(c)
DAV:   1    -0.828402745836E+03    0.41348E-03   -0.81984E-02 12240   0.328E-01    0.115E-01
RMM:   2    -0.828403086015E+03   -0.34018E-03   -0.39407E-03 13611   0.108E-01    0.495E-02
RMM:   3    -0.828403204728E+03   -0.11871E-03   -0.69450E-04 14202   0.415E-02    0.881E-02
RMM:   4    -0.828403114714E+03    0.90014E-04   -0.10570E-04 12292   0.230E-02    0.441E-02
RMM:   5    -0.828403109910E+03    0.48039E-05   -0.26578E-05 12448   0.744E-03    0.373E-02
RMM:   6    -0.828403106909E+03    0.30013E-05   -0.19101E-05 11939   0.787E-03    0.285E-02
RMM:   7    -0.828403108278E+03   -0.13694E-05   -0.46962E-05 13607   0.101E-02    0.161E-02
RMM:   8    -0.828403107686E+03    0.59238E-06   -0.90988E-06 10170   0.681E-03
  23 F= -.83768241E+03 E0= -.83763234E+03  d E =-.115283E-02  mag=     0.0000
       N       E                     dE             d eps       ncg     rms          rms(c)
DAV:   1    -0.828401105232E+03    0.20030E-02   -0.32630E-01 12016   0.655E-01    0.234E-01
RMM:   2    -0.828402436051E+03   -0.13308E-02   -0.16086E-02 13792   0.213E-01    0.923E-02
RMM:   3    -0.828402882923E+03   -0.44687E-03   -0.25704E-03 14530   0.745E-02    0.163E-01
RMM:   4    -0.828402568002E+03    0.31492E-03   -0.35302E-04 12870   0.416E-02    0.856E-02
RMM:   5    -0.828402542939E+03    0.25063E-04   -0.87598E-05 13971   0.138E-02    0.673E-02
RMM:   6    -0.828402540211E+03    0.27281E-05   -0.10482E-04 13315   0.184E-02    0.502E-02
RMM:   7    -0.828402545007E+03   -0.47958E-05   -0.12686E-04 14217   0.161E-02    0.289E-02
RMM:   8    -0.828402537392E+03    0.76149E-05   -0.19038E-05 10757   0.993E-03    0.209E-02
RMM:   9    -0.828402532610E+03    0.47813E-05   -0.48530E-06  9428   0.516E-03    0.156E-02
RMM:  10    -0.828402527749E+03    0.48616E-05   -0.20471E-05 12727   0.510E-03    0.899E-03
RMM:  11    -0.828402527485E+03    0.26375E-06   -0.53226E-06 10057   0.511E-03
  24 F= -.83768255E+03 E0= -.83763242E+03  d E =-.129301E-02  mag=     0.0000
       N       E                     dE             d eps       ncg     rms          rms(c)
DAV:   1    -0.828402636039E+03   -0.10829E-03   -0.31312E-02 12496   0.204E-01    0.699E-02
RMM:   2    -0.828402766242E+03   -0.13020E-03   -0.15517E-03 13635   0.680E-02    0.315E-02
RMM:   3    -0.828402808647E+03   -0.42405E-04   -0.27270E-04 14066   0.263E-02    0.520E-02
RMM:   4    -0.828402778958E+03    0.29689E-04   -0.41311E-05 11358   0.144E-02    0.276E-02
RMM:   5    -0.828402777433E+03    0.15246E-05   -0.10616E-05 10456   0.529E-03    0.237E-02
RMM:   6    -0.828402775997E+03    0.14365E-05   -0.73261E-06 10509   0.498E-03    0.166E-02
RMM:   7    -0.828402778302E+03   -0.23055E-05   -0.20548E-05 12858   0.582E-03    0.944E-03
RMM:   8    -0.828402777982E+03    0.32062E-06   -0.27869E-06  8752   0.444E-03
  25 F= -.83768258E+03 E0= -.83763246E+03  d E =-.131965E-02  mag=     0.0000
       N       E                     dE             d eps       ncg     rms          rms(c)
DAV:   1    -0.828402407291E+03    0.37101E-03   -0.10837E-01 12128   0.363E-01    0.138E-01
RMM:   2    -0.828402893926E+03   -0.48664E-03   -0.53998E-03 13375   0.126E-01    0.616E-02
RMM:   3    -0.828403078649E+03   -0.18472E-03   -0.10270E-03 14167   0.522E-02    0.111E-01
RMM:   4    -0.828402933935E+03    0.14471E-03   -0.15409E-04 12460   0.273E-02    0.546E-02
RMM:   5    -0.828402929292E+03    0.46428E-05   -0.38511E-05 12870   0.740E-03    0.495E-02
RMM:   6    -0.828402922814E+03    0.64781E-05   -0.12014E-05 11168   0.632E-03    0.404E-02
RMM:   7    -0.828402926374E+03   -0.35600E-05   -0.10935E-04 14083   0.110E-02    0.201E-02
RMM:   8    -0.828402925071E+03    0.13029E-05   -0.12916E-05 10575   0.828E-03    0.150E-02
RMM:   9    -0.828402922815E+03    0.22556E-05   -0.17671E-06  7674   0.270E-03    0.129E-02
RMM:  10    -0.828402919681E+03    0.31343E-05   -0.27823E-06  8008   0.289E-03    0.881E-03
RMM:  11    -0.828402918938E+03    0.74306E-06   -0.14866E-05 12125   0.442E-03    0.511E-03
RMM:  12    -0.828402918853E+03    0.85070E-07   -0.13231E-06  7504   0.291E-03
  26 F= -.83768312E+03 E0= -.83763297E+03  d E =-.538110E-03  mag=     0.0000
       N       E                     dE             d eps       ncg     rms          rms(c)
DAV:   1    -0.828398348795E+03    0.45701E-02   -0.97469E-01 12000   0.109E+00    0.422E-01
RMM:   2    -0.828402701391E+03   -0.43526E-02   -0.49469E-02 13604   0.368E-01    0.171E-01
RMM:   3    -0.828404141257E+03   -0.14399E-02   -0.82404E-03 14416   0.137E-01    0.300E-01
RMM:   4    -0.828403083034E+03    0.10582E-02   -0.11102E-03 13027   0.720E-02    0.159E-01
RMM:   5    -0.828403031146E+03    0.51888E-04   -0.27279E-04 15129   0.213E-02    0.140E-01
RMM:   6    -0.828402977305E+03    0.53841E-04   -0.12673E-04 13218   0.199E-02    0.111E-01
RMM:   7    -0.828402994628E+03   -0.17322E-04   -0.69565E-04 14777   0.300E-02    0.557E-02
RMM:   8    -0.828402981943E+03    0.12684E-04   -0.94732E-05 12386   0.205E-02    0.384E-02
RMM:   9    -0.828402967604E+03    0.14340E-04   -0.19838E-05 11377   0.792E-03    0.320E-02
RMM:  10    -0.828402945918E+03    0.21686E-04   -0.30074E-05 12945   0.700E-03    0.192E-02
RMM:  11    -0.828402943015E+03    0.29031E-05   -0.47978E-05 14128   0.948E-03    0.137E-02
RMM:  12    -0.828402941803E+03    0.12117E-05   -0.62442E-06  9898   0.544E-03    0.493E-03
RMM:  13    -0.828402941634E+03    0.16954E-06   -0.97707E-07  7472   0.254E-03
  27 F= -.83768433E+03 E0= -.83763408E+03  d E =-.175333E-02  mag=     0.0000
       N       E                     dE             d eps       ncg     rms          rms(c)
DAV:   1    -0.828382650936E+03    0.20291E-01   -0.38953E+00 12000   0.218E+00    0.844E-01
RMM:   2    -0.828400331783E+03   -0.17681E-01   -0.20004E-01 13563   0.750E-01    0.359E-01
RMM:   3    -0.828406787874E+03   -0.64561E-02   -0.35260E-02 14420   0.294E-01    0.644E-01
RMM:   4    -0.828401785046E+03    0.50028E-02   -0.52270E-03 13041   0.156E-01    0.319E-01
RMM:   5    -0.828401585836E+03    0.19921E-03   -0.13108E-03 15494   0.465E-02    0.281E-01
RMM:   6    -0.828401337794E+03    0.24804E-03   -0.47699E-04 13505   0.378E-02    0.221E-01
RMM:   7    -0.828401401232E+03   -0.63439E-04   -0.25235E-03 14616   0.618E-02    0.124E-01
RMM:   8    -0.828401353740E+03    0.47493E-04   -0.52478E-04 13345   0.445E-02    0.800E-02
RMM:   9    -0.828401301092E+03    0.52647E-04   -0.12046E-04 13229   0.188E-02    0.678E-02
RMM:  10    -0.828401205004E+03    0.96088E-04   -0.11007E-04 13618   0.132E-02    0.411E-02
RMM:  11    -0.828401186252E+03    0.18752E-04   -0.22205E-04 14662   0.186E-02    0.287E-02
RMM:  12    -0.828401180483E+03    0.57685E-05   -0.27758E-05 11602   0.113E-02    0.999E-03
RMM:  13    -0.828401179536E+03    0.94766E-06   -0.45766E-06  9570   0.416E-03
  28 F= -.83768496E+03 E0= -.83763450E+03  d E =-.237908E-02  mag=     0.0000
       N       E                     dE             d eps       ncg     rms          rms(c)
DAV:   1    -0.828399915014E+03    0.12655E-02   -0.25891E-01 12192   0.546E-01    0.241E-01
RMM:   2    -0.828401146411E+03   -0.12314E-02   -0.14227E-02 13521   0.195E-01    0.897E-02
RMM:   3    -0.828401529384E+03   -0.38297E-03   -0.23981E-03 14434   0.718E-02    0.152E-01
RMM:   4    -0.828401270313E+03    0.25907E-03   -0.29235E-04 12759   0.365E-02    0.854E-02
RMM:   5    -0.828401252850E+03    0.17463E-04   -0.66389E-05 13973   0.110E-02    0.739E-02
RMM:   6    -0.828401238031E+03    0.14819E-04   -0.37854E-05 12587   0.110E-02    0.588E-02
RMM:   7    -0.828401242658E+03   -0.46274E-05   -0.19954E-04 14562   0.167E-02    0.287E-02
RMM:   8    -0.828401240527E+03    0.21309E-05   -0.27369E-05 11028   0.111E-02    0.198E-02
RMM:   9    -0.828401236854E+03    0.36728E-05   -0.50956E-06  9510   0.417E-03    0.164E-02
RMM:  10    -0.828401231587E+03    0.52673E-05   -0.88253E-06 10304   0.377E-03    0.915E-03
RMM:  11    -0.828401232132E+03   -0.54461E-06   -0.13261E-05 12035   0.511E-03    0.706E-03
RMM:  12    -0.828401232335E+03   -0.20300E-06   -0.17520E-06  7595   0.307E-03
  29 F= -.83768568E+03 E0= -.83763515E+03  d E =-.726004E-03  mag=     0.0000
       N       E                     dE             d eps       ncg     rms          rms(c)
DAV:   1    -0.828388599811E+03    0.12632E-01   -0.23354E+00 12000   0.164E+00    0.721E-01
RMM:   2    -0.828399826309E+03   -0.11226E-01   -0.12887E-01 13522   0.584E-01    0.277E-01
RMM:   3    -0.828403355785E+03   -0.35295E-02   -0.21797E-02 14455   0.220E-01    0.467E-01
RMM:   4    -0.828400914290E+03    0.24415E-02   -0.27418E-03 13032   0.112E-01    0.261E-01
RMM:   5    -0.828400763866E+03    0.15042E-03   -0.62871E-04 15288   0.321E-02    0.229E-01
RMM:   6    -0.828400624193E+03    0.13967E-03   -0.29680E-04 13376   0.308E-02    0.186E-01
RMM:   7    -0.828400639159E+03   -0.14965E-04   -0.18103E-03 14709   0.484E-02    0.939E-02
RMM:   8    -0.828400602694E+03    0.36465E-04   -0.28034E-04 12937   0.339E-02    0.608E-02
RMM:   9    -0.828400568319E+03    0.34375E-04   -0.60881E-05 12528   0.142E-02    0.507E-02
RMM:  10    -0.828400517838E+03    0.50480E-04   -0.56729E-05 13086   0.106E-02    0.317E-02
RMM:  11    -0.828400506816E+03    0.11022E-04   -0.14275E-04 14822   0.138E-02    0.204E-02
RMM:  12    -0.828400504031E+03    0.27857E-05   -0.14192E-05 10796   0.800E-03    0.799E-03
RMM:  13    -0.828400503648E+03    0.38295E-06   -0.20780E-06  7964   0.340E-03
  30 F= -.83768699E+03 E0= -.83763624E+03  d E =-.203197E-02  mag=     0.0000
       N       E                     dE             d eps       ncg     rms          rms(c)
DAV:   1    -0.828396953279E+03    0.35508E-02   -0.53897E-01 12000   0.787E-01    0.347E-01
RMM:   2    -0.828399528919E+03   -0.25756E-02   -0.29634E-02 13506   0.280E-01    0.132E-01
RMM:   3    -0.828400377573E+03   -0.84865E-03   -0.50598E-03 14427   0.106E-01    0.228E-01
RMM:   4    -0.828399777624E+03    0.59995E-03   -0.63729E-04 12978   0.545E-02    0.124E-01
RMM:   5    -0.828399742490E+03    0.35133E-04   -0.14839E-04 14740   0.162E-02    0.108E-01
RMM:   6    -0.828399710761E+03    0.31729E-04   -0.72453E-05 12939   0.153E-02    0.862E-02
RMM:   7    -0.828399723407E+03   -0.12646E-04   -0.40429E-04 14764   0.225E-02    0.457E-02
RMM:   8    -0.828399711518E+03    0.11889E-04   -0.58761E-05 12139   0.157E-02    0.281E-02
RMM:   9    -0.828399703788E+03    0.77293E-05   -0.11328E-05 10459   0.628E-03    0.232E-02
RMM:  10    -0.828399693538E+03    0.10250E-04   -0.15691E-05 12169   0.512E-03    0.135E-02
RMM:  11    -0.828399693759E+03   -0.22141E-06   -0.26458E-05 13419   0.682E-03    0.103E-02
RMM:  12    -0.828399693766E+03   -0.61846E-08   -0.33945E-06  8947   0.413E-03
  31 F= -.83768716E+03 E0= -.83763632E+03  d E =-.220841E-02  mag=     0.0000
       N       E                     dE             d eps       ncg     rms          rms(c)
DAV:   1    -0.828396960904E+03    0.27329E-02   -0.64500E-01 12000   0.851E-01    0.376E-01
RMM:   2    -0.828400202118E+03   -0.32412E-02   -0.35995E-02 13468   0.307E-01    0.160E-01
RMM:   3    -0.828401624498E+03   -0.14224E-02   -0.65202E-03 14389   0.124E-01    0.301E-01
RMM:   4    -0.828400412548E+03    0.12119E-02   -0.97322E-04 13053   0.691E-02    0.137E-01
RMM:   5    -0.828400377486E+03    0.35063E-04   -0.20421E-04 14945   0.182E-02    0.120E-01
RMM:   6    -0.828400338573E+03    0.38913E-04   -0.94746E-05 13281   0.168E-02    0.942E-02
RMM:   7    -0.828400347733E+03   -0.91600E-05   -0.36444E-04 14645   0.233E-02    0.520E-02
RMM:   8    -0.828400338665E+03    0.90679E-05   -0.91228E-05 13066   0.170E-02    0.317E-02
RMM:   9    -0.828400332214E+03    0.64510E-05   -0.20047E-05 10686   0.918E-03    0.263E-02
RMM:  10    -0.828400320258E+03    0.11955E-04   -0.11626E-05 11454   0.544E-03    0.167E-02
RMM:  11    -0.828400317865E+03    0.23936E-05   -0.37040E-05 13811   0.707E-03    0.110E-02
RMM:  12    -0.828400317652E+03    0.21260E-06   -0.46783E-06  9696   0.501E-03
  32 F= -.83768898E+03 E0= -.83763804E+03  d E =-.181312E-02  mag=     0.0000
       N       E                     dE             d eps       ncg     rms          rms(c)
DAV:   1    -0.828370371652E+03    0.29946E-01   -0.57999E+00 12000   0.255E+00    0.114E+00
RMM:   2    -0.828399965650E+03   -0.29594E-01   -0.32631E-01 13382   0.934E-01    0.495E-01
RMM:   3    -0.828413570027E+03   -0.13604E-01   -0.60599E-02 14543   0.383E-01    0.938E-01
RMM:   4    -0.828401723019E+03    0.11847E-01   -0.95680E-03 13108   0.216E-01    0.417E-01
RMM:   5    -0.828401386046E+03    0.33697E-03   -0.20463E-03 15477   0.581E-02    0.367E-01
RMM:   6    -0.828401014780E+03    0.37127E-03   -0.75852E-04 13617   0.467E-02    0.293E-01
RMM:   7    -0.828401031292E+03   -0.16512E-04   -0.27811E-03 14565   0.687E-02    0.181E-01
RMM:   8    -0.828400919567E+03    0.11172E-03   -0.11881E-03 14211   0.565E-02    0.939E-02
RMM:   9    -0.828400872526E+03    0.47041E-04   -0.21817E-04 12786   0.281E-02    0.813E-02
RMM:  10    -0.828400749661E+03    0.12286E-03   -0.11372E-04 13550   0.165E-02    0.509E-02
RMM:  11    -0.828400714603E+03    0.35058E-04   -0.31358E-04 14545   0.204E-02    0.319E-02
RMM:  12    -0.828400708315E+03    0.62880E-05   -0.38743E-05 12169   0.135E-02    0.106E-02
RMM:  13    -0.828400708668E+03   -0.35271E-06   -0.63870E-06 10143   0.471E-03
  33 F= -.83769299E+03 E0= -.83764177E+03  d E =-.582213E-02  mag=     0.0000
       N       E                     dE             d eps       ncg     rms          rms(c)
DAV:   1    -0.828271343575E+03    0.12936E+00   -0.23154E+01 12000   0.510E+00    0.234E+00
RMM:   2    -0.828392397658E+03   -0.12105E+00   -0.13195E+00 13186   0.194E+00    0.105E+00
RMM:   3    -0.828456188731E+03   -0.63791E-01   -0.27708E-01 14663   0.851E-01    0.204E+00
RMM:   4    -0.828399256027E+03    0.56933E-01   -0.49015E-02 13103   0.488E-01    0.871E-01
RMM:   5    -0.828397731231E+03    0.15248E-02   -0.10595E-02 15313   0.141E-01    0.773E-01
RMM:   6    -0.828396193771E+03    0.15375E-02   -0.25205E-03 13684   0.832E-02    0.633E-01
RMM:   7    -0.828395563618E+03    0.63015E-03   -0.79579E-03 14418   0.126E-01    0.406E-01
RMM:   8    -0.828395484590E+03    0.79028E-04   -0.75704E-03 14893   0.118E-01    0.199E-01
RMM:   9    -0.828395263698E+03    0.22089E-03   -0.91917E-04 13007   0.646E-02    0.163E-01
RMM:  10    -0.828394711124E+03    0.55257E-03   -0.60601E-04 13884   0.353E-02    0.962E-02
RMM:  11    -0.828394624005E+03    0.87119E-04   -0.81389E-04 14678   0.408E-02    0.717E-02
RMM:  12    -0.828394587257E+03    0.36748E-04   -0.19750E-04 13791   0.252E-02    0.219E-02
RMM:  13    -0.828394588312E+03   -0.10550E-05   -0.32373E-05 11567   0.890E-03    0.169E-02
RMM:  14    -0.828394593138E+03   -0.48253E-05   -0.12870E-05 11393   0.571E-03    0.149E-02
RMM:  15    -0.828394606198E+03   -0.13060E-04   -0.11374E-05 11821   0.473E-03    0.127E-02
RMM:  16    -0.828394617189E+03   -0.10991E-04   -0.39913E-06  8863   0.358E-03    0.692E-03
RMM:  17    -0.828394625982E+03   -0.87931E-05   -0.68580E-06  9793   0.340E-03    0.392E-03
RMM:  18    -0.828394632711E+03   -0.67291E-05   -0.16735E-06  7690   0.252E-03    0.461E-03
RMM:  19    -0.828394643923E+03   -0.11212E-04   -0.12340E-06  7480   0.228E-03    0.370E-03
RMM:  20    -0.828394658152E+03   -0.14229E-04   -0.19339E-06  7680   0.167E-03    0.204E-03
RMM:  21    -0.828394663481E+03   -0.53287E-05   -0.87008E-07  7413   0.147E-03    0.174E-03
RMM:  22    -0.828394666495E+03   -0.30137E-05   -0.44824E-07  7103   0.124E-03    0.134E-03
RMM:  23    -0.828394672732E+03   -0.62371E-05   -0.43286E-07  6687   0.894E-04    0.130E-03
RMM:  24    -0.828394675486E+03   -0.27546E-05   -0.23052E-07  6516   0.819E-04    0.109E-03
RMM:  25    -0.828394677376E+03   -0.18899E-05   -0.15850E-07  5656   0.591E-04    0.414E-04
RMM:  26    -0.828394678499E+03   -0.11228E-05   -0.10567E-07  5268   0.506E-04    0.346E-04
RMM:  27    -0.828394679872E+03   -0.13724E-05   -0.89501E-08  5299   0.459E-04    0.480E-04
RMM:  28    -0.828394681735E+03   -0.18633E-05   -0.90480E-08  5078   0.432E-04    0.434E-04
RMM:  29    -0.828394682220E+03   -0.48500E-06   -0.47225E-08  4179   0.382E-04
  34 F= -.83769442E+03 E0= -.83764266E+03  d E =-.725108E-02  mag=     0.0000
       N       E                     dE             d eps       ncg     rms          rms(c)
DAV:   1    -0.828382117490E+03    0.12564E-01   -0.30460E+00 12000   0.185E+00    0.808E-01
RMM:   2    -0.828397405822E+03   -0.15288E-01   -0.16968E-01 13483   0.670E-01    0.339E-01
RMM:   3    -0.828404081269E+03   -0.66754E-02   -0.30832E-02 14570   0.266E-01    0.646E-01
RMM:   4    -0.828398463565E+03    0.56177E-02   -0.42882E-03 13172   0.145E-01    0.298E-01
RMM:   5    -0.828398288703E+03    0.17486E-03   -0.93914E-04 15253   0.411E-02    0.260E-01
RMM:   6    -0.828398063810E+03    0.22489E-03   -0.51145E-04 13782   0.358E-02    0.196E-01
RMM:   7    -0.828398126971E+03   -0.63161E-04   -0.17050E-03 14602   0.535E-02    0.116E-01
RMM:   8    -0.828398070960E+03    0.56011E-04   -0.44226E-04 13586   0.381E-02    0.682E-02
RMM:   9    -0.828398035424E+03    0.35536E-04   -0.94080E-05 12346   0.186E-02    0.575E-02
RMM:  10    -0.828397957665E+03    0.77759E-04   -0.12150E-04 13804   0.127E-02    0.259E-02
RMM:  11    -0.828397954913E+03    0.27526E-05   -0.98345E-05 14125   0.127E-02    0.165E-02
RMM:  12    -0.828397953774E+03    0.11385E-05   -0.11669E-05 10942   0.738E-03    0.682E-03
RMM:  13    -0.828397954268E+03   -0.49375E-06   -0.13529E-06  7514   0.288E-03
  35 F= -.83769495E+03 E0= -.83764339E+03  d E =-.778722E-02  mag=     0.0000
       N       E                     dE             d eps       ncg     rms          rms(c)
DAV:   1    -0.828396199373E+03    0.17544E-02   -0.41100E-01 12320   0.682E-01    0.280E-01
RMM:   2    -0.828398249377E+03   -0.20500E-02   -0.22584E-02 13318   0.248E-01    0.126E-01
RMM:   3    -0.828399198009E+03   -0.94863E-03   -0.42804E-03 14448   0.100E-01    0.244E-01
RMM:   4    -0.828398383638E+03    0.81437E-03   -0.63414E-04 13026   0.560E-02    0.110E-01
RMM:   5    -0.828398368134E+03    0.15504E-04   -0.13474E-04 14493   0.155E-02    0.967E-02
RMM:   6    -0.828398344747E+03    0.23387E-04   -0.61555E-05 13334   0.125E-02    0.742E-02
RMM:   7    -0.828398362991E+03   -0.18244E-04   -0.19562E-04 14532   0.182E-02    0.454E-02
RMM:   8    -0.828398361130E+03    0.18616E-05   -0.77753E-05 13312   0.145E-02    0.260E-02
RMM:   9    -0.828398356845E+03    0.42851E-05   -0.13967E-05 10425   0.804E-03    0.221E-02
RMM:  10    -0.828398345928E+03    0.10917E-04   -0.14552E-05 11816   0.489E-03    0.112E-02
RMM:  11    -0.828398345098E+03    0.82963E-06   -0.17461E-05 12823   0.551E-03    0.717E-03
RMM:  12    -0.828398344821E+03    0.27743E-06   -0.17981E-06  7622   0.305E-03
  36 F= -.83769633E+03 E0= -.83764468E+03  d E =-.138036E-02  mag=     0.0000
       N       E                     dE             d eps       ncg     rms          rms(c)
DAV:   1    -0.828379788269E+03    0.18557E-01   -0.36938E+00 12000   0.204E+00    0.851E-01
RMM:   2    -0.828398508084E+03   -0.18720E-01   -0.20376E-01 13321   0.746E-01    0.399E-01
RMM:   3    -0.828407690657E+03   -0.91826E-02   -0.39762E-02 14580   0.312E-01    0.766E-01
RMM:   4    -0.828399508075E+03    0.81826E-02   -0.63122E-03 13129   0.177E-01    0.329E-01
RMM:   5    -0.828399313998E+03    0.19408E-03   -0.13132E-03 15374   0.475E-02    0.289E-01
RMM:   6    -0.828399087705E+03    0.22629E-03   -0.46791E-04 13726   0.352E-02    0.230E-01
RMM:   7    -0.828399080010E+03    0.76948E-05   -0.14982E-03 14540   0.522E-02    0.142E-01
RMM:   8    -0.828399071889E+03    0.81209E-05   -0.90574E-04 14615   0.445E-02    0.771E-02
RMM:   9    -0.828399034511E+03    0.37378E-04   -0.12290E-04 12272   0.228E-02    0.667E-02
RMM:  10    -0.828398939278E+03    0.95233E-04   -0.11786E-04 13677   0.143E-02    0.355E-02
RMM:  11    -0.828398926080E+03    0.13198E-04   -0.14859E-04 14631   0.154E-02    0.223E-02
RMM:  12    -0.828398922146E+03    0.39342E-05   -0.16165E-05 11087   0.878E-03    0.846E-03
RMM:  13    -0.828398922086E+03    0.59896E-07   -0.27675E-06  8461   0.346E-03
  37 F= -.83769991E+03 E0= -.83764800E+03  d E =-.495711E-02  mag=     0.0000
       N       E                     dE             d eps       ncg     rms          rms(c)
DAV:   1    -0.828319891148E+03    0.79031E-01   -0.14752E+01 12000   0.409E+00    0.175E+00
RMM:   2    -0.828396796178E+03   -0.76905E-01   -0.82753E-01 13194   0.153E+00    0.851E-01
RMM:   3    -0.828437241287E+03   -0.40445E-01   -0.17509E-01 14653   0.662E-01    0.162E+00
RMM:   4    -0.828400255695E+03    0.36986E-01   -0.29821E-02 13084   0.385E-01    0.676E-01
RMM:   5    -0.828399384619E+03    0.87108E-03   -0.65755E-03 15389   0.109E-01    0.604E-01
RMM:   6    -0.828398416247E+03    0.96837E-03   -0.15834E-03 13795   0.644E-02    0.492E-01
RMM:   7    -0.828397981452E+03    0.43479E-03   -0.48772E-03 14481   0.974E-02    0.310E-01
RMM:   8    -0.828398132493E+03   -0.15104E-03   -0.49305E-03 14937   0.914E-02    0.162E-01
RMM:   9    -0.828397983645E+03    0.14885E-03   -0.56525E-04 12771   0.516E-02    0.137E-01
RMM:  10    -0.828397578479E+03    0.40517E-03   -0.48998E-04 14025   0.301E-02    0.763E-02
RMM:  11    -0.828397526721E+03    0.51758E-04   -0.49287E-04 14575   0.320E-02    0.551E-02
RMM:  12    -0.828397501636E+03    0.25085E-04   -0.11328E-04 13600   0.185E-02    0.189E-02
RMM:  13    -0.828397500974E+03    0.66242E-06   -0.18380E-05 11023   0.754E-03    0.133E-02
RMM:  14    -0.828397502848E+03   -0.18744E-05   -0.52883E-06  9913   0.437E-03    0.119E-02
RMM:  15    -0.828397509041E+03   -0.61928E-05   -0.75950E-06 10542   0.388E-03    0.971E-03
RMM:  16    -0.828397512767E+03   -0.37256E-05   -0.16343E-06  7702   0.267E-03    0.527E-03
RMM:  17    -0.828397515337E+03   -0.25706E-05   -0.28805E-06  8287   0.250E-03    0.249E-03
RMM:  18    -0.828397517630E+03   -0.22922E-05   -0.14121E-06  7678   0.215E-03    0.291E-03
RMM:  19    -0.828397521033E+03   -0.34038E-05   -0.73564E-07  7358   0.189E-03    0.241E-03
RMM:  20    -0.828397526759E+03   -0.57257E-05   -0.59847E-07  7378   0.132E-03    0.152E-03
RMM:  21    -0.828397529119E+03   -0.23603E-05   -0.37531E-07  6892   0.993E-04    0.139E-03
RMM:  22    -0.828397530119E+03   -0.99945E-06   -0.22844E-07  6810   0.800E-04
  38 F= -.83770465E+03 E0= -.83765226E+03  d E =-.969490E-02  mag=     0.0000
       N       E                     dE             d eps       ncg     rms          rms(c)
DAV:   1    -0.828058538491E+03    0.33899E+00   -0.58822E+01 12000   0.820E+00    0.384E+00
RMM:   2    -0.828387581084E+03   -0.32904E+00   -0.34968E+00 13139   0.323E+00    0.193E+00
RMM:   3    -0.828565256291E+03   -0.17768E+00   -0.78809E-01 14631   0.147E+00    0.346E+00
RMM:   4    -0.828396536171E+03    0.16872E+00   -0.15867E-01 13021   0.879E-01    0.146E+00
RMM:   5    -0.828392448217E+03    0.40880E-02   -0.38147E-02 15371   0.260E-01    0.132E+00
RMM:   6    -0.828388645234E+03    0.38030E-02   -0.58318E-03 13863   0.124E-01    0.112E+00
RMM:   7    -0.828384661997E+03    0.39832E-02   -0.14035E-02 14430   0.167E-01    0.735E-01
RMM:   8    -0.828385986817E+03   -0.13248E-02   -0.25915E-02 14923   0.177E-01    0.338E-01
RMM:   9    -0.828385567157E+03    0.41966E-03   -0.29771E-03 12864   0.124E-01    0.280E-01
RMM:  10    -0.828384050930E+03    0.15162E-02   -0.18216E-03 13705   0.679E-02    0.194E-01
RMM:  11    -0.828383535912E+03    0.51502E-03   -0.17143E-03 14665   0.615E-02    0.106E-01
RMM:  12    -0.828383448227E+03    0.87685E-04   -0.66329E-04 14694   0.371E-02    0.455E-02
RMM:  13    -0.828383438404E+03    0.98231E-05   -0.76981E-05 11965   0.186E-02    0.275E-02
RMM:  14    -0.828383443860E+03   -0.54565E-05   -0.21859E-05 11224   0.914E-03    0.248E-02
RMM:  15    -0.828383460589E+03   -0.16729E-04   -0.23505E-05 12933   0.716E-03    0.175E-02
RMM:  16    -0.828383468209E+03   -0.76197E-05   -0.59952E-06  9844   0.488E-03    0.113E-02
RMM:  17    -0.828383473476E+03   -0.52672E-05   -0.71916E-06 10746   0.378E-03    0.413E-03
RMM:  18    -0.828383480701E+03   -0.72248E-05   -0.43235E-06  9329   0.298E-03    0.355E-03
RMM:  19    -0.828383490424E+03   -0.97235E-05   -0.17125E-06  7600   0.277E-03    0.416E-03
RMM:  20    -0.828383503856E+03   -0.13432E-04   -0.15596E-06  7560   0.230E-03    0.227E-03
RMM:  21    -0.828383508712E+03   -0.48556E-05   -0.72305E-07  7434   0.147E-03    0.182E-03
RMM:  22    -0.828383513322E+03   -0.46103E-05   -0.58089E-07  7240   0.127E-03    0.115E-03
RMM:  23    -0.828383520750E+03   -0.74279E-05   -0.54506E-07  7127   0.112E-03    0.160E-03
RMM:  24    -0.828383525982E+03   -0.52314E-05   -0.56458E-07  6826   0.110E-03    0.143E-03
RMM:  25    -0.828383527974E+03   -0.19925E-05   -0.25443E-07  6279   0.855E-04    0.871E-04
RMM:  26    -0.828383528966E+03   -0.99228E-06   -0.15145E-07  5621   0.615E-04
  39 F= -.83770338E+03 E0= -.83765033E+03  d E =-.843279E-02  mag=     0.0000
       N       E                     dE             d eps       ncg     rms          rms(c)
DAV:   1    -0.828284855582E+03    0.98672E-01   -0.20429E+01 12000   0.482E+00    0.209E+00
RMM:   2    -0.828390527444E+03   -0.10567E+00   -0.11594E+00 13269   0.181E+00    0.926E-01
RMM:   3    -0.828438086385E+03   -0.47559E-01   -0.23315E-01 14745   0.747E-01    0.173E+00
RMM:   4    -0.828397781593E+03    0.40305E-01   -0.32252E-02 13243   0.395E-01    0.798E-01
RMM:   5    -0.828396251551E+03    0.15300E-02   -0.73711E-03 14802   0.130E-01    0.696E-01
RMM:   6    -0.828394615932E+03    0.16356E-02   -0.29918E-03 13946   0.842E-02    0.539E-01
RMM:   7    -0.828394631609E+03   -0.15677E-04   -0.94581E-03 14468   0.134E-01    0.336E-01
RMM:   8    -0.828394523805E+03    0.10780E-03   -0.47827E-03 14633   0.105E-01    0.193E-01
RMM:   9    -0.828394233787E+03    0.29002E-03   -0.70966E-04 13117   0.525E-02    0.152E-01
RMM:  10    -0.828393661656E+03    0.57213E-03   -0.10580E-03 14257   0.348E-02    0.673E-02
RMM:  11    -0.828393647652E+03    0.14004E-04   -0.46573E-04 14172   0.342E-02    0.524E-02
RMM:  12    -0.828393629185E+03    0.18468E-04   -0.88953E-05 12871   0.185E-02    0.192E-02
RMM:  13    -0.828393631505E+03   -0.23207E-05   -0.16923E-05 11288   0.611E-03    0.157E-02
RMM:  14    -0.828393635520E+03   -0.40150E-05   -0.43458E-06  9325   0.439E-03    0.139E-02
RMM:  15    -0.828393646166E+03   -0.10645E-04   -0.59264E-06 10039   0.380E-03    0.101E-02
RMM:  16    -0.828393651256E+03   -0.50901E-05   -0.18926E-06  7856   0.317E-03    0.582E-03
RMM:  17    -0.828393656184E+03   -0.49285E-05   -0.38961E-06  8507   0.262E-03    0.254E-03
RMM:  18    -0.828393659093E+03   -0.29090E-05   -0.13291E-06  7590   0.238E-03    0.262E-03
RMM:  19    -0.828393663789E+03   -0.46961E-05   -0.75420E-07  7392   0.176E-03    0.232E-03
RMM:  20    -0.828393673359E+03   -0.95694E-05   -0.87291E-07  7497   0.148E-03    0.146E-03
RMM:  21    -0.828393677080E+03   -0.37210E-05   -0.49307E-07  6899   0.102E-03    0.117E-03
RMM:  22    -0.828393678344E+03   -0.12640E-05   -0.23758E-07  6557   0.860E-04    0.799E-04
RMM:  23    -0.828393681222E+03   -0.28783E-05   -0.19674E-07  5723   0.588E-04    0.728E-04
RMM:  24    -0.828393683981E+03   -0.27589E-05   -0.23445E-07  6077   0.682E-04    0.845E-04
RMM:  25    -0.828393685420E+03   -0.14394E-05   -0.16433E-07  5859   0.610E-04    0.501E-04
RMM:  26    -0.828393686195E+03   -0.77435E-06   -0.10480E-07  5132   0.481E-04
  40 F= -.83770596E+03 E0= -.83765324E+03  d E =-.110127E-01  mag=    -0.0000
       N       E                     dE             d eps       ncg     rms          rms(c)
DAV:   1    -0.828389661757E+03    0.40237E-02   -0.10820E+00 12048   0.112E+00    0.437E-01
RMM:   2    -0.828395062557E+03   -0.54008E-02   -0.59565E-02 13374   0.407E-01    0.211E-01
RMM:   3    -0.828397596052E+03   -0.25335E-02   -0.11522E-02 14549   0.161E-01    0.401E-01
RMM:   4    -0.828395349215E+03    0.22468E-02   -0.17655E-03 13043   0.943E-02    0.173E-01
RMM:   5    -0.828395294309E+03    0.54906E-04   -0.37105E-04 14717   0.273E-02    0.149E-01
RMM:   6    -0.828395235033E+03    0.59276E-04   -0.22450E-04 13810   0.241E-02    0.112E-01
RMM:   7    -0.828395245905E+03   -0.10872E-04   -0.46844E-04 14505   0.307E-02    0.656E-02
RMM:   8    -0.828395249836E+03   -0.39304E-05   -0.19071E-04 13943   0.220E-02    0.441E-02
RMM:   9    -0.828395234326E+03    0.15510E-04   -0.31219E-05 10896   0.124E-02    0.363E-02
RMM:  10    -0.828395203268E+03    0.31057E-04   -0.60098E-05 13575   0.858E-03    0.174E-02
RMM:  11    -0.828395201429E+03    0.18392E-05   -0.30066E-05 13084   0.926E-03    0.121E-02
RMM:  12    -0.828395200563E+03    0.86620E-06   -0.50357E-06  9781   0.445E-03
  41 F= -.83770898E+03 E0= -.83765620E+03  d E =-.301319E-02  mag=    -0.0000
       N       E                     dE             d eps       ncg     rms          rms(c)
DAV:   1    -0.828384485450E+03    0.10716E-01   -0.22414E+00 12000   0.162E+00    0.633E-01
RMM:   2    -0.828395743184E+03   -0.11258E-01   -0.12371E-01 13368   0.588E-01    0.309E-01
RMM:   3    -0.828401075220E+03   -0.53320E-02   -0.24063E-02 14536   0.236E-01    0.584E-01
RMM:   4    -0.828396320694E+03    0.47545E-02   -0.38356E-03 13044   0.139E-01    0.248E-01
RMM:   5    -0.828396197546E+03    0.12315E-03   -0.81863E-04 14985   0.402E-02    0.214E-01
RMM:   6    -0.828396068974E+03    0.12857E-03   -0.44594E-04 13737   0.342E-02    0.162E-01
RMM:   7    -0.828396073220E+03   -0.42460E-05   -0.95695E-04 14547   0.438E-02    0.938E-02
RMM:   8    -0.828396088507E+03   -0.15287E-04   -0.40985E-04 14348   0.317E-02    0.633E-02
RMM:   9    -0.828396057070E+03    0.31436E-04   -0.65959E-05 11426   0.176E-02    0.520E-02
RMM:  10    -0.828395994765E+03    0.62306E-04   -0.11763E-04 13715   0.123E-02    0.264E-02
RMM:  11    -0.828395990256E+03    0.45090E-05   -0.64334E-05 13581   0.133E-02    0.181E-02
RMM:  12    -0.828395988544E+03    0.17119E-05   -0.11758E-05 11131   0.641E-03    0.686E-03
RMM:  13    -0.828395989038E+03   -0.49347E-06   -0.12164E-06  7505   0.279E-03
  42 F= -.83771194E+03 E0= -.83765909E+03  d E =-.597359E-02  mag=    -0.0000
       N       E                     dE             d eps       ncg     rms          rms(c)
DAV:   1    -0.828346309026E+03    0.49680E-01   -0.89594E+00 12000   0.323E+00    0.128E+00
RMM:   2    -0.828391884443E+03   -0.45575E-01   -0.49910E-01 13306   0.120E+00    0.635E-01
RMM:   3    -0.828413585551E+03   -0.21701E-01   -0.10006E-01 14661   0.491E-01    0.118E+00
RMM:   4    -0.828394185087E+03    0.19400E-01   -0.16546E-02 13108   0.285E-01    0.505E-01
RMM:   5    -0.828393609502E+03    0.57558E-03   -0.35421E-03 14995   0.854E-02    0.438E-01
RMM:   6    -0.828393067830E+03    0.54167E-03   -0.15455E-03 13782   0.643E-02    0.341E-01
RMM:   7    -0.828392914239E+03    0.15359E-03   -0.35054E-03 14461   0.847E-02    0.198E-01
RMM:   8    -0.828393035330E+03   -0.12109E-03   -0.20741E-03 14760   0.669E-02    0.128E-01
RMM:   9    -0.828392914486E+03    0.12084E-03   -0.29553E-04 12471   0.372E-02    0.105E-01
RMM:  10    -0.828392675624E+03    0.23886E-03   -0.40787E-04 14035   0.254E-02    0.605E-02
RMM:  11    -0.828392641906E+03    0.33717E-04   -0.29255E-04 14352   0.257E-02    0.381E-02
RMM:  12    -0.828392630985E+03    0.10921E-04   -0.49276E-05 13018   0.128E-02    0.139E-02
RMM:  13    -0.828392632533E+03   -0.15471E-05   -0.64309E-06  9797   0.504E-03    0.107E-02
RMM:  14    -0.828392634873E+03   -0.23405E-05   -0.18503E-06  7791   0.320E-03    0.910E-03
RMM:  15    -0.828392644269E+03   -0.93960E-05   -0.24886E-06  8016   0.323E-03    0.645E-03
RMM:  16    -0.828392649458E+03   -0.51891E-05   -0.14298E-06  7523   0.291E-03    0.321E-03
RMM:  17    -0.828392652530E+03   -0.30722E-05   -0.11733E-06  7528   0.185E-03    0.216E-03
RMM:  18    -0.828392655964E+03   -0.34340E-05   -0.11694E-06  7572   0.193E-03    0.223E-03
RMM:  19    -0.828392659076E+03   -0.31119E-05   -0.59680E-07  7387   0.164E-03    0.195E-03
RMM:  20    -0.828392666895E+03   -0.78186E-05   -0.57008E-07  7376   0.114E-03    0.112E-03
RMM:  21    -0.828392669648E+03   -0.27530E-05   -0.26967E-07  6734   0.852E-04    0.116E-03
RMM:  22    -0.828392671285E+03   -0.16373E-05   -0.16371E-07  6408   0.744E-04    0.711E-04
RMM:  23    -0.828392673778E+03   -0.24925E-05   -0.14416E-07  5699   0.554E-04    0.491E-04
RMM:  24    -0.828392677161E+03   -0.33833E-05   -0.24383E-07  5994   0.579E-04    0.547E-04
RMM:  25    -0.828392678671E+03   -0.15102E-05   -0.14765E-07  5758   0.571E-04    0.369E-04
RMM:  26    -0.828392679298E+03   -0.62666E-06   -0.80567E-08  5075   0.445E-04
  43 F= -.83771302E+03 E0= -.83766011E+03  d E =-.705690E-02  mag=     0.0000
       N       E                     dE             d eps       ncg     rms          rms(c)
DAV:   1    -0.828389080857E+03    0.35978E-02   -0.10662E+00 12064   0.112E+00    0.436E-01
RMM:   2    -0.828394416764E+03   -0.53359E-02   -0.59148E-02 13471   0.404E-01    0.206E-01
RMM:   3    -0.828396755424E+03   -0.23387E-02   -0.11052E-02 14549   0.158E-01    0.387E-01
RMM:   4    -0.828394716378E+03    0.20390E-02   -0.16318E-03 13063   0.904E-02    0.172E-01
RMM:   5    -0.828394659800E+03    0.56577E-04   -0.35372E-04 14530   0.282E-02    0.148E-01
RMM:   6    -0.828394597937E+03    0.61864E-04   -0.22954E-04 13727   0.246E-02    0.111E-01
RMM:   7    -0.828394611664E+03   -0.13727E-04   -0.46257E-04 14473   0.307E-02    0.652E-02
RMM:   8    -0.828394615045E+03   -0.33809E-05   -0.18387E-04 13865   0.219E-02    0.437E-02
RMM:   9    -0.828394598835E+03    0.16210E-04   -0.31512E-05 10872   0.125E-02    0.349E-02
RMM:  10    -0.828394569145E+03    0.29690E-04   -0.59749E-05 13581   0.828E-03    0.156E-02
RMM:  11    -0.828394567760E+03    0.13849E-05   -0.25942E-05 13028   0.865E-03    0.111E-02
RMM:  12    -0.828394566923E+03    0.83764E-06   -0.41306E-06  9173   0.416E-03
  44 F= -.83771339E+03 E0= -.83766049E+03  d E =-.742195E-02  mag=     0.0000
       N       E                     dE             d eps       ncg     rms          rms(c)
DAV:   1    -0.828389910173E+03    0.46576E-02   -0.12107E+00 12000   0.120E+00    0.498E-01
RMM:   2    -0.828395716745E+03   -0.58066E-02   -0.66793E-02 13493   0.429E-01    0.202E-01
RMM:   3    -0.828397992008E+03   -0.22753E-02   -0.11597E-02 14514   0.166E-01    0.372E-01
RMM:   4    -0.828396214768E+03    0.17772E-02   -0.17347E-03 13094   0.926E-02    0.184E-01
RMM:   5    -0.828396128909E+03    0.85859E-04   -0.40032E-04 14032   0.325E-02    0.151E-01
RMM:   6    -0.828396059642E+03    0.69267E-04   -0.32074E-04 13557   0.318E-02    0.109E-01
RMM:   7    -0.828396114202E+03   -0.54560E-04   -0.64478E-04 14607   0.334E-02    0.702E-02
RMM:   8    -0.828396074597E+03    0.39606E-04   -0.12126E-04 12601   0.237E-02    0.413E-02
RMM:   9    -0.828396055590E+03    0.19007E-04   -0.23408E-05 11189   0.102E-02    0.327E-02
RMM:  10    -0.828396032569E+03    0.23021E-04   -0.68507E-05 13671   0.974E-03    0.198E-02
RMM:  11    -0.828396029697E+03    0.28723E-05   -0.24892E-05 12489   0.956E-03    0.961E-03
RMM:  12    -0.828396029441E+03    0.25582E-06   -0.47968E-06  9390   0.381E-03
  45 F= -.83771608E+03 E0= -.83766311E+03  d E =-.269322E-02  mag=    -0.0000
       N       E                     dE             d eps       ncg     rms          rms(c)
DAV:   1    -0.828391022277E+03    0.50074E-02   -0.96304E-01 12032   0.107E+00    0.447E-01
RMM:   2    -0.828395646046E+03   -0.46238E-02   -0.53031E-02 13486   0.383E-01    0.180E-01
RMM:   3    -0.828397546180E+03   -0.19001E-02   -0.93995E-03 14495   0.151E-01    0.339E-01
RMM:   4    -0.828396046552E+03    0.14996E-02   -0.14559E-03 13095   0.846E-02    0.163E-01
RMM:   5    -0.828395979610E+03    0.66942E-04   -0.33286E-04 14062   0.291E-02    0.134E-01
RMM:   6    -0.828395919737E+03    0.59873E-04   -0.25318E-04 13546   0.283E-02    0.948E-02
RMM:   7    -0.828395962976E+03   -0.43239E-04   -0.52064E-04 14557   0.302E-02    0.607E-02
RMM:   8    -0.828395935098E+03    0.27878E-04   -0.91312E-05 12436   0.207E-02    0.368E-02
RMM:   9    -0.828395919761E+03    0.15336E-04   -0.17396E-05 10946   0.862E-03    0.289E-02
RMM:  10    -0.828395901994E+03    0.17768E-04   -0.59236E-05 13646   0.866E-03    0.164E-02
RMM:  11    -0.828395900499E+03    0.14943E-05   -0.17467E-05 11880   0.834E-03    0.878E-03
RMM:  12    -0.828395900454E+03    0.45038E-07   -0.35247E-06  8604   0.334E-03
  46 F= -.83771705E+03 E0= -.83766402E+03  d E =-.366349E-02  mag=    -0.0000
       N       E                     dE             d eps       ncg     rms          rms(c)
DAV:   1    -0.828391943376E+03    0.39571E-02   -0.12516E+00 12000   0.120E+00    0.523E-01
RMM:   2    -0.828397777907E+03   -0.58345E-02   -0.67740E-02 13594   0.420E-01    0.185E-01
RMM:   3    -0.828399336563E+03   -0.15587E-02   -0.10349E-02 14739   0.151E-01    0.304E-01
RMM:   4    -0.828398346542E+03    0.99002E-03   -0.12557E-03 13101   0.737E-02    0.183E-01
RMM:   5    -0.828398232393E+03    0.11415E-03   -0.27798E-04 14681   0.232E-02    0.149E-01
RMM:   6    -0.828398185534E+03    0.46859E-04   -0.28887E-04 13357   0.300E-02    0.116E-01
RMM:   7    -0.828398198493E+03   -0.12958E-04   -0.75362E-04 14657   0.321E-02    0.571E-02
RMM:   8    -0.828398173935E+03    0.24557E-04   -0.86026E-05 12180   0.206E-02    0.372E-02
RMM:   9    -0.828398154599E+03    0.19337E-04   -0.20120E-05 11315   0.914E-03    0.285E-02
RMM:  10    -0.828398138081E+03    0.16518E-04   -0.47204E-05 13438   0.903E-03    0.162E-02
RMM:  11    -0.828398137919E+03    0.16196E-06   -0.21092E-05 12325   0.809E-03    0.112E-02
RMM:  12    -0.828398137638E+03    0.28034E-06   -0.48809E-06  9572   0.405E-03
  47 F= -.83772036E+03 E0= -.83766735E+03  d E =-.331432E-02  mag=    -0.0000
       N       E                     dE             d eps       ncg     rms          rms(c)
DAV:   1    -0.828392990581E+03    0.51473E-02   -0.12477E+00 12000   0.119E+00    0.523E-01
RMM:   2    -0.828398824675E+03   -0.58341E-02   -0.67706E-02 13604   0.419E-01    0.186E-01
RMM:   3    -0.828400353959E+03   -0.15293E-02   -0.10253E-02 14746   0.150E-01    0.302E-01
RMM:   4    -0.828399383356E+03    0.97060E-03   -0.12343E-03 13107   0.731E-02    0.183E-01
RMM:   5    -0.828399265930E+03    0.11743E-03   -0.27257E-04 14642   0.233E-02    0.149E-01
RMM:   6    -0.828399219973E+03    0.45957E-04   -0.29645E-04 13392   0.302E-02    0.116E-01
RMM:   7    -0.828399226698E+03   -0.67259E-05   -0.74735E-04 14671   0.319E-02    0.549E-02
RMM:   8    -0.828399204851E+03    0.21848E-04   -0.81499E-05 12163   0.199E-02    0.376E-02
RMM:   9    -0.828399186863E+03    0.17988E-04   -0.19775E-05 11134   0.928E-03    0.289E-02
RMM:  10    -0.828399170034E+03    0.16829E-04   -0.51289E-05 13550   0.891E-03    0.154E-02
RMM:  11    -0.828399170996E+03   -0.96268E-06   -0.19246E-05 12075   0.821E-03    0.117E-02
RMM:  12    -0.828399170954E+03    0.42273E-07   -0.47911E-06  9425   0.394E-03
  48 F= -.83772247E+03 E0= -.83766949E+03  d E =-.542417E-02  mag=    -0.0000
       N       E                     dE             d eps       ncg     rms          rms(c)
DAV:   1    -0.828372792713E+03    0.26378E-01   -0.49885E+00 12000   0.239E+00    0.106E+00
RMM:   2    -0.828396257568E+03   -0.23465E-01   -0.27202E-01 13550   0.845E-01    0.380E-01
RMM:   3    -0.828402527274E+03   -0.62697E-02   -0.41800E-02 14767   0.306E-01    0.614E-01
RMM:   4    -0.828398508475E+03    0.40188E-02   -0.51315E-03 13147   0.150E-01    0.369E-01
RMM:   5    -0.828398056185E+03    0.45229E-03   -0.11686E-03 14781   0.493E-02    0.304E-01
RMM:   6    -0.828397809042E+03    0.24714E-03   -0.10462E-03 13500   0.565E-02    0.234E-01
RMM:   7    -0.828397859702E+03   -0.50660E-04   -0.29454E-03 14696   0.649E-02    0.125E-01
RMM:   8    -0.828397746231E+03    0.11347E-03   -0.45113E-04 12925   0.452E-02    0.748E-02
RMM:   9    -0.828397682717E+03    0.63515E-04   -0.99333E-05 12633   0.205E-02    0.612E-02
RMM:  10    -0.828397600107E+03    0.82609E-04   -0.18917E-04 13919   0.178E-02    0.321E-02
RMM:  11    -0.828397599891E+03    0.21681E-06   -0.91810E-05 13571   0.158E-02    0.254E-02
RMM:  12    -0.828397596942E+03    0.29483E-05   -0.22780E-05 11923   0.882E-03    0.101E-02
RMM:  13    -0.828397597831E+03   -0.88870E-06   -0.35567E-06  9058   0.412E-03
  49 F= -.83772306E+03 E0= -.83767015E+03  d E =-.600702E-02  mag=    -0.0000
       N       E                     dE             d eps       ncg     rms          rms(c)
DAV:   1    -0.828394565174E+03    0.30318E-02   -0.85319E-01 12032   0.988E-01    0.428E-01
RMM:   2    -0.828398620093E+03   -0.40549E-02   -0.47110E-02 13686   0.348E-01    0.157E-01
RMM:   3    -0.828399554850E+03   -0.93476E-03   -0.67950E-03 14803   0.121E-01    0.241E-01
RMM:   4    -0.828398977064E+03    0.57779E-03   -0.73127E-04 13087   0.581E-02    0.153E-01
RMM:   5    -0.828398905105E+03    0.71959E-04   -0.17179E-04 14220   0.201E-02    0.125E-01
RMM:   6    -0.828398876453E+03    0.28652E-04   -0.20703E-04 13490   0.248E-02    0.963E-02
RMM:   7    -0.828398900513E+03   -0.24060E-04   -0.46569E-04 14509   0.274E-02    0.497E-02
RMM:   8    -0.828398885412E+03    0.15101E-04   -0.71324E-05 12278   0.176E-02    0.305E-02
RMM:   9    -0.828398877133E+03    0.82792E-05   -0.18255E-05 10466   0.921E-03    0.259E-02
RMM:  10    -0.828398863504E+03    0.13628E-04   -0.32814E-05 13142   0.780E-03    0.123E-02
RMM:  11    -0.828398863948E+03   -0.44412E-06   -0.14003E-05 11639   0.677E-03    0.978E-03
RMM:  12    -0.828398863823E+03    0.12490E-06   -0.39642E-06  8883   0.367E-03
  50 F= -.83772343E+03 E0= -.83767049E+03  d E =-.638108E-02  mag=    -0.0000
       N       E                     dE             d eps       ncg     rms          rms(c)
DAV:   1    -0.828397246961E+03    0.16170E-02   -0.57967E-01 12144   0.815E-01    0.345E-01
RMM:   2    -0.828399903211E+03   -0.26562E-02   -0.30989E-02 13661   0.281E-01    0.129E-01
RMM:   3    -0.828400581137E+03   -0.67793E-03   -0.45769E-03 14746   0.995E-02    0.203E-01
RMM:   4    -0.828400129824E+03    0.45131E-03   -0.55106E-04 13021   0.496E-02    0.123E-01
RMM:   5    -0.828400083975E+03    0.45849E-04   -0.11412E-04 14273   0.153E-02    0.101E-01
RMM:   6    -0.828400062325E+03    0.21650E-04   -0.12885E-04 13535   0.183E-02    0.772E-02
RMM:   7    -0.828400069772E+03   -0.74473E-05   -0.29511E-04 14526   0.215E-02    0.415E-02
RMM:   8    -0.828400060080E+03    0.96922E-05   -0.50614E-05 12030   0.143E-02    0.254E-02
RMM:   9    -0.828400053716E+03    0.63633E-05   -0.10287E-05 10036   0.689E-03    0.207E-02
RMM:  10    -0.828400043273E+03    0.10444E-04   -0.25038E-05 13177   0.585E-03    0.114E-02
RMM:  11    -0.828400042567E+03    0.70571E-06   -0.11374E-05 11054   0.639E-03    0.762E-03
RMM:  12    -0.828400042318E+03    0.24943E-06   -0.26118E-06  8121   0.275E-03
  51 F= -.83772547E+03 E0= -.83767256E+03  d E =-.203887E-02  mag=    -0.0000
       N       E                     dE             d eps       ncg     rms          rms(c)
DAV:   1    -0.828376105298E+03    0.23937E-01   -0.52228E+00 12000   0.245E+00    0.105E+00
RMM:   2    -0.828400254359E+03   -0.24149E-01   -0.27999E-01 13536   0.854E-01    0.387E-01
RMM:   3    -0.828406663915E+03   -0.64096E-02   -0.42787E-02 14805   0.310E-01    0.624E-01
RMM:   4    -0.828402367571E+03    0.42963E-02   -0.52317E-03 13125   0.152E-01    0.372E-01
RMM:   5    -0.828401942902E+03    0.42467E-03   -0.11597E-03 14738   0.505E-02    0.310E-01
RMM:   6    -0.828401632822E+03    0.31008E-03   -0.11384E-03 13738   0.529E-02    0.229E-01
RMM:   7    -0.828401694869E+03   -0.62047E-04   -0.24887E-03 14572   0.658E-02    0.135E-01
RMM:   8    -0.828401600228E+03    0.94641E-04   -0.57370E-04 13473   0.449E-02    0.756E-02
RMM:   9    -0.828401548901E+03    0.51328E-04   -0.11448E-04 12588   0.210E-02    0.631E-02
RMM:  10    -0.828401455405E+03    0.93495E-04   -0.19810E-04 13839   0.180E-02    0.357E-02
RMM:  11    -0.828401447828E+03    0.75776E-05   -0.12709E-04 13849   0.177E-02    0.242E-02
RMM:  12    -0.828401444205E+03    0.36231E-05   -0.22888E-05 11840   0.873E-03    0.976E-03
RMM:  13    -0.828401444543E+03   -0.33856E-06   -0.29136E-06  8758   0.370E-03
  52 F= -.83772946E+03 E0= -.83767663E+03  d E =-.602485E-02  mag=    -0.0000
       N       E                     dE             d eps       ncg     rms          rms(c)
DAV:   1    -0.828291424114E+03    0.11002E+00   -0.20862E+01 12000   0.490E+00    0.215E+00
RMM:   2    -0.828390310175E+03   -0.98886E-01   -0.11445E+00 13413   0.177E+00    0.832E-01
RMM:   3    -0.828417638538E+03   -0.27328E-01   -0.18602E-01 14658   0.673E-01    0.130E+00
RMM:   4    -0.828398825259E+03    0.18813E-01   -0.24915E-02 13123   0.336E-01    0.758E-01
RMM:   5    -0.828397199676E+03    0.16256E-02   -0.63920E-03 14748   0.120E-01    0.651E-01
RMM:   6    -0.828395666758E+03    0.15329E-02   -0.35022E-03 13747   0.958E-02    0.493E-01
RMM:   7    -0.828395749740E+03   -0.82982E-04   -0.90720E-03 14434   0.131E-01    0.316E-01
RMM:   8    -0.828395388364E+03    0.36138E-03   -0.36798E-03 14252   0.985E-02    0.158E-01
RMM:   9    -0.828395193816E+03    0.19455E-03   -0.60936E-04 13402   0.461E-02    0.131E-01
RMM:  10    -0.828394821498E+03    0.37232E-03   -0.65331E-04 13865   0.353E-02    0.800E-02
RMM:  11    -0.828394772925E+03    0.48573E-04   -0.63599E-04 14647   0.364E-02    0.576E-02
RMM:  12    -0.828394744876E+03    0.28049E-04   -0.11083E-04 13227   0.193E-02    0.196E-02
RMM:  13    -0.828394745345E+03   -0.46827E-06   -0.16245E-05 10745   0.756E-03    0.134E-02
RMM:  14    -0.828394749375E+03   -0.40298E-05   -0.50452E-06  9397   0.434E-03    0.114E-02
RMM:  15    -0.828394771060E+03   -0.21685E-04   -0.95341E-06 10799   0.390E-03    0.889E-03
RMM:  16    -0.828394781660E+03   -0.10600E-04   -0.21224E-06  8064   0.343E-03    0.607E-03
RMM:  17    -0.828394791711E+03   -0.10051E-04   -0.42405E-06  8467   0.278E-03    0.360E-03
RMM:  18    -0.828394800039E+03   -0.83278E-05   -0.26417E-06  8291   0.255E-03    0.434E-03
RMM:  19    -0.828394810378E+03   -0.10340E-04   -0.11151E-06  7466   0.231E-03    0.388E-03
RMM:  20    -0.828394830609E+03   -0.20231E-04   -0.25237E-06  7743   0.181E-03    0.228E-03
RMM:  21    -0.828394835693E+03   -0.50840E-05   -0.87648E-07  7428   0.152E-03    0.198E-03
RMM:  22    -0.828394839114E+03   -0.34211E-05   -0.56704E-07  7239   0.122E-03    0.134E-03
RMM:  23    -0.828394842946E+03   -0.38320E-05   -0.29349E-07  6596   0.996E-04    0.904E-04
RMM:  24    -0.828394848470E+03   -0.55239E-05   -0.37720E-07  6826   0.781E-04    0.698E-04
RMM:  25    -0.828394850218E+03   -0.17475E-05   -0.15620E-07  5901   0.720E-04    0.456E-04
RMM:  26    -0.828394851359E+03   -0.11417E-05   -0.90595E-08  5195   0.472E-04    0.283E-04
RMM:  27    -0.828394853009E+03   -0.16499E-05   -0.75604E-08  4956   0.435E-04    0.406E-04
RMM:  28    -0.828394854787E+03   -0.17781E-05   -0.72161E-08  4953   0.406E-04    0.383E-04
RMM:  29    -0.828394855850E+03   -0.10624E-05   -0.53545E-08  4560   0.388E-04    0.171E-04
RMM:  30    -0.828394856173E+03   -0.32347E-06   -0.30815E-08  3741   0.329E-04
  53 F= -.83772805E+03 E0= -.83767546E+03  d E =-.461485E-02  mag=    -0.0000
       N       E                     dE             d eps       ncg     rms          rms(c)
DAV:   1    -0.828360697916E+03    0.34158E-01   -0.80917E+00 12000   0.305E+00    0.130E+00
RMM:   2    -0.828398748550E+03   -0.38051E-01   -0.44301E-01 13680   0.107E+00    0.480E-01
RMM:   3    -0.828406749122E+03   -0.80006E-02   -0.64837E-02 14874   0.373E-01    0.706E-01
RMM:   4    -0.828401960196E+03    0.47889E-02   -0.66832E-03 13162   0.174E-01    0.466E-01
RMM:   5    -0.828401259613E+03    0.70058E-03   -0.16793E-03 14021   0.703E-02    0.391E-01
RMM:   6    -0.828400658772E+03    0.60084E-03   -0.18939E-03 13994   0.644E-02    0.279E-01
RMM:   7    -0.828400778720E+03   -0.11995E-03   -0.35336E-03 14425   0.815E-02    0.176E-01
RMM:   8    -0.828400631362E+03    0.14736E-03   -0.96766E-04 13747   0.554E-02    0.968E-02
RMM:   9    -0.828400554220E+03    0.77143E-04   -0.19698E-04 12562   0.278E-02    0.788E-02
RMM:  10    -0.828400404212E+03    0.15001E-03   -0.39132E-04 14191   0.228E-02    0.359E-02
RMM:  11    -0.828400400038E+03    0.41736E-05   -0.12810E-04 13441   0.198E-02    0.233E-02
RMM:  12    -0.828400401261E+03   -0.12228E-05   -0.29479E-05 11868   0.938E-03    0.110E-02
RMM:  13    -0.828400403381E+03   -0.21201E-05   -0.39713E-06  9144   0.394E-03    0.784E-03
RMM:  14    -0.828400406551E+03   -0.31696E-05   -0.14863E-06  7582   0.279E-03    0.671E-03
RMM:  15    -0.828400419765E+03   -0.13214E-04   -0.33270E-06  8059   0.270E-03    0.526E-03
RMM:  16    -0.828400425814E+03   -0.60491E-05   -0.11710E-06  7495   0.265E-03    0.328E-03
RMM:  17    -0.828400430650E+03   -0.48357E-05   -0.15705E-06  7636   0.173E-03    0.223E-03
RMM:  18    -0.828400435496E+03   -0.48459E-05   -0.12604E-06  7640   0.188E-03    0.273E-03
RMM:  19    -0.828400440665E+03   -0.51692E-05   -0.62825E-07  7394   0.166E-03    0.238E-03
RMM:  20    -0.828400449776E+03   -0.91106E-05   -0.88658E-07  7415   0.118E-03    0.123E-03
RMM:  21    -0.828400452982E+03   -0.32065E-05   -0.48661E-07  7063   0.101E-03    0.115E-03
RMM:  22    -0.828400455169E+03   -0.21870E-05   -0.37811E-07  6807   0.856E-04    0.698E-04
RMM:  23    -0.828400457470E+03   -0.23007E-05   -0.17343E-07  6146   0.674E-04    0.515E-04
RMM:  24    -0.828400459596E+03   -0.21261E-05   -0.19294E-07  5611   0.557E-04    0.444E-04
RMM:  25    -0.828400460617E+03   -0.10215E-05   -0.10656E-07  5125   0.502E-04    0.273E-04
RMM:  26    -0.828400461240E+03   -0.62279E-06   -0.66657E-08  4535   0.391E-04
  54 F= -.83773042E+03 E0= -.83767768E+03  d E =-.699343E-02  mag=     0.0000
       N       E                     dE             d eps       ncg     rms          rms(c)
DAV:   1    -0.828391804144E+03    0.86565E-02   -0.21779E+00 12000   0.160E+00    0.627E-01
RMM:   2    -0.828401499012E+03   -0.96949E-02   -0.11430E-01 13598   0.549E-01    0.223E-01
RMM:   3    -0.828403521447E+03   -0.20224E-02   -0.16945E-02 15261   0.180E-01    0.329E-01
RMM:   4    -0.828402569867E+03    0.95158E-03   -0.14767E-03 13073   0.794E-02    0.234E-01
RMM:   5    -0.828402337056E+03    0.23281E-03   -0.38318E-04 13972   0.317E-02    0.182E-01
RMM:   6    -0.828402265006E+03    0.72050E-04   -0.61832E-04 13799   0.396E-02    0.130E-01
RMM:   7    -0.828402308500E+03   -0.43493E-04   -0.84431E-04 14726   0.385E-02    0.748E-02
RMM:   8    -0.828402272352E+03    0.36147E-04   -0.15033E-04 12692   0.254E-02    0.441E-02
RMM:   9    -0.828402252927E+03    0.19425E-04   -0.44436E-05 11725   0.141E-02    0.406E-02
