<?xml version="1.0" encoding="ISO-8859-1"?>
<modeling>
 <generator>
  <i name="program" type="string">vasp </i>
  <i name="version" type="string">5.4.4.18Apr17-6-g9f103f2a35  </i>
  <i name="subversion" type="string">(build Nov 10 2019 13:41:14) complex            parallel </i>
  <i name="platform" type="string">LinuxIFC </i>
  <i name="date" type="string">2019 11 28 </i>
  <i name="time" type="string">10:56:53 </i>
 </generator>
 <incar>
  <i type="string" name="SYSTEM"> membrane</i>
  <i type="int" name="ISTART">     0</i>
  <i type="string" name="PREC">normal</i>
  <i type="string" name="ALGO"> Fast</i>
  <i type="int" name="ISPIN">     2</i>
  <i type="int" name="ICHARG">     2</i>
  <i type="int" name="IBRION">     2</i>
  <i name="EDIFF">      0.00000100</i>
  <i name="EDIFFG">     -0.01000000</i>
  <i type="int" name="NSW">  1000</i>
  <i name="ENCUT">    500.00000000</i>
  <i type="logical" name="LPLANE"> T  </i>
  <i type="int" name="ISMEAR">     0</i>
  <i name="SIGMA">      0.05000000</i>
  <i type="logical" name="LWAVE"> F  </i>
  <i type="logical" name="LCHARG"> F  </i>
  <v type="int" name="KPOINT_BSE">    -1     0     0     0</v>
 </incar>
 <structure name="primitive_cell" >
  <crystal>
   <varray name="basis" >
    <v>      26.26650047       0.00000000       0.00000000 </v>
    <v>     -13.13288029      22.74974710       0.00000000 </v>
    <v>       0.00000000       0.00000000      20.20179939 </v>
   </varray>
   <i name="volume">  12071.71134534 </i>
   <varray name="rec_basis" >
    <v>       0.03807131       0.02197765       0.00000000 </v>
    <v>       0.00000000       0.04395653       0.00000000 </v>
    <v>       0.00000000       0.00000000       0.04950054 </v>
   </varray>
  </crystal>
  <varray name="positions" >
   <v>       0.02969555       0.30220391      -0.49984762 </v>
   <v>       0.06067661       0.36420968      -0.49992725 </v>
   <v>      -0.03245909       0.27110165      -0.49928907 </v>
   <v>       0.06777521       0.26407169      -0.49995841 </v>
   <v>       0.02962348       0.39529673      -0.49957410 </v>
   <v>      -0.06352353       0.30216643      -0.49860462 </v>
   <v>       0.13690753       0.40235423       0.49983130 </v>
   <v>      -0.07047130       0.19495780      -0.49894447 </v>
   <v>      -0.03251210       0.36421456      -0.49878115 </v>
   <v>       0.16536415       0.33320599      -0.49999854 </v>
   <v>      -0.00132830       0.16653257      -0.49967401 </v>
   <v>       0.06771945       0.47142986      -0.49994127 </v>
   <v>      -0.13968921       0.26412962      -0.49724871 </v>
   <v>      -0.07067298       0.40224185      -0.49784662 </v>
   <v>       0.16531554       0.49990988      -0.49959310 </v>
   <v>      -0.16803254       0.16662930      -0.49785642 </v>
   <v>       0.06783566       0.13813144       0.49963894 </v>
   <v>       0.19389445       0.26411460       0.49957369 </v>
   <v>      -0.07039125       0.06900651      -0.49930357 </v>
   <v>       0.26301968       0.40232827       0.49959297 </v>
   <v>      -0.00138489       0.49980766      -0.49832384 </v>
   <v>      -0.16830592       0.33307294      -0.49558419 </v>
   <v>      -0.19635413       0.06913348      -0.49991538 </v>
   <v>       0.26291093      -0.47171331       0.49981762 </v>
   <v>       0.16537593       0.16655506      -0.49960572 </v>
   <v>       0.02981443       0.06202868      -0.49983559 </v>
   <v>       0.27004115       0.30216559       0.49990992 </v>
   <v>      -0.03234912       0.03094371      -0.49970565 </v>
   <v>       0.30110697       0.36426916       0.49987407 </v>
   <v>       0.19384161      -0.40257850      -0.49893924 </v>
   <v>      -0.26560961       0.13837007      -0.49814378 </v>
   <v>      -0.16791913      -0.00005780      -0.49957548 </v>
   <v>       0.33209211       0.49989315      -0.49948296 </v>
   <v>       0.06781766      -0.40264608       0.49887410 </v>
   <v>      -0.26587485       0.26434310       0.49811475 </v>
   <v>      -0.27247413       0.03112669      -0.49962936 </v>
   <v>       0.30098857      -0.39563832      -0.49981250 </v>
   <v>       0.06087769       0.03095080      -0.49971251 </v>
   <v>       0.30111063       0.27105907      -0.49937607 </v>
   <v>      -0.07055121      -0.47185016      -0.49863413 </v>
   <v>      -0.19671772       0.40211188      -0.48961006 </v>
   <v>      -0.30355505       0.06221444      -0.49906122 </v>
   <v>       0.26990204      -0.36454485      -0.49967202 </v>
   <v>      -0.06340218      -0.03118032      -0.49983733 </v>
   <v>       0.36328510       0.39535196      -0.49963252 </v>
   <v>       0.13699486       0.06903694      -0.49938477 </v>
   <v>       0.26300051       0.19498776      -0.49886347 </v>
   <v>       0.16538003      -0.33352928      -0.49949130 </v>
   <v>      -0.33483197       0.16679203      -0.49439406 </v>
   <v>      -0.13952711      -0.06924275       0.49973847 </v>
   <v>       0.40127614       0.47142953      -0.49980816 </v>
   <v>      -0.30345885       0.30206733      -0.49365314 </v>
   <v>       0.02972816      -0.36466322       0.49999301 </v>
   <v>      -0.30357287      -0.03102742      -0.49984216 </v>
   <v>       0.36315320      -0.36454138      -0.49965672 </v>
   <v>       0.02982685      -0.03116696      -0.49978789 </v>
   <v>       0.36328104       0.30210390      -0.49867161 </v>
   <v>      -0.03243199      -0.39576565      -0.49930764 </v>
   <v>      -0.27231462       0.36434598      -0.49236225 </v>
   <v>      -0.03233464      -0.06224793      -0.49980783 </v>
   <v>       0.39439547       0.36429936      -0.49882402 </v>
   <v>      -0.26547165      -0.06914076      -0.49933325 </v>
   <v>       0.40116993      -0.40259556      -0.49893570 </v>
   <v>      -0.27742453       0.31746515      -0.33141796 </v>
   <v>      -0.16814522       0.49956293      -0.49462212 </v>
   <v>      -0.36563383       0.03116723      -0.49922908 </v>
   <v>       0.30098722      -0.30238305      -0.49981771 </v>
   <v>      -0.40366611       0.06933419      -0.49870086 </v>
   <v>       0.26294713      -0.26434475       0.49990779 </v>
   <v>      -0.36563473       0.27088739      -0.49010761 </v>
   <v>       0.06080764      -0.30247842      -0.49997162 </v>
   <v>      -0.36560312      -0.06203426       0.49998925 </v>
   <v>       0.39425200      -0.30239134      -0.49978174 </v>
   <v>      -0.06353979      -0.36471009      -0.49919189 </v>
   <v>      -0.30339571       0.39546048      -0.49174365 </v>
   <v>      -0.39669860      -0.03095963      -0.49991361 </v>
   <v>       0.16546522      -0.00001569      -0.49957593 </v>
   <v>       0.36314741      -0.27129342      -0.49976305 </v>
   <v>       0.33228559       0.16664223      -0.49713100 </v>
   <v>      -0.40308948       0.19576886      -0.48059687 </v>
   <v>       0.13693905      -0.26438897      -0.49947296 </v>
   <v>       0.06787358      -0.06923965       0.49996285 </v>
   <v>       0.40142371       0.26417726      -0.49748070 </v>
   <v>      -0.07039443      -0.13834745      -0.49987971 </v>
   <v>       0.47049658       0.40221478      -0.49789569 </v>
   <v>       0.26314580       0.06916195      -0.49966633 </v>
   <v>      -0.13961392      -0.40284325      -0.49850210 </v>
   <v>      -0.26564240       0.47102679      -0.49317599 </v>
   <v>      -0.16794375      -0.16682747      -0.49964655 </v>
   <v>       0.49882678       0.49976751      -0.49739664 </v>
   <v>      -0.34382706       0.33468285      -0.29064778 </v>
   <v>       0.02971784      -0.27144401      -0.49999342 </v>
   <v>       0.49868402      -0.33357678      -0.49951417 </v>
   <v>      -0.33464298      -0.16677857      -0.49975517 </v>
   <v>      -0.39686798       0.30193842      -0.49222037 </v>
   <v>      -0.03243697      -0.30252291      -0.49969280 </v>
   <v>      -0.36572696       0.36425494      -0.49090207 </v>
   <v>      -0.47279254      -0.40269392       0.49930061 </v>
   <v>      -0.26551767      -0.19532663       0.49922163 </v>
   <v>      -0.40374562      -0.13823555       0.49990342 </v>
   <v>       0.47033193      -0.26432909      -0.49994984 </v>
   <v>      -0.32960714       0.41845400      -0.32724792 </v>
   <v>      -0.47282636      -0.06905990       0.49931227 </v>
   <v>       0.40116553      -0.19522832      -0.49945302 </v>
   <v>      -0.00135841      -0.16683635      -0.49942120 </v>
   <v>       0.49905297       0.33310999      -0.49371346 </v>
   <v>      -0.33936366       0.33622676      -0.18519044 </v>
   <v>      -0.42841412       0.26717699      -0.32801237 </v>
   <v>       0.49887085       0.00011264      -0.49797391 </v>
   <v>       0.33210275      -0.16674344      -0.49953287 </v>
   <v>       0.30123018       0.03112363      -0.49936507 </v>
   <v>       0.19394392      -0.06909997       0.49996207 </v>
   <v>       0.40163985       0.13834154      -0.49657441 </v>
   <v>       0.49938219       0.16675436      -0.49194325 </v>
   <v>       0.16539528      -0.16674818      -0.49964992 </v>
   <v>      -0.47223046       0.26422459      -0.49857195 </v>
   <v>       0.06776983      -0.19530123       0.49996816 </v>
   <v>       0.47057567       0.06925417      -0.49650196 </v>
   <v>       0.26305113      -0.13824400       0.49939687 </v>
   <v>      -0.40356073       0.40183521      -0.48612466 </v>
   <v>      -0.07044323      -0.26444977      -0.49962604 </v>
   <v>      -0.33475040       0.49940820      -0.49188070 </v>
   <v>      -0.16798486      -0.33363336      -0.49743551 </v>
   <v>      -0.19637382      -0.26444368      -0.49998353 </v>
   <v>      -0.40360790      -0.47184225      -0.49637902 </v>
   <v>      -0.39676112      -0.36470342      -0.49952201 </v>
   <v>       0.27014639      -0.03100487      -0.49997807 </v>
   <v>      -0.30352620      -0.27143575       0.49987315 </v>
   <v>       0.36339285       0.06221966      -0.49823359 </v>
   <v>       0.49868362      -0.16672110      -0.49937511 </v>
   <v>      -0.26558112      -0.40281663      -0.49540108 </v>
   <v>      -0.40372655      -0.26446219       0.49971322 </v>
   <v>      -0.36571088      -0.39584049      -0.49806533 </v>
   <v>      -0.27239458      -0.30249888      -0.49936641 </v>
   <v>      -0.36567064      -0.30251268       0.49995068 </v>
   <v>       0.40133344      -0.06910649       0.49879775 </v>
   <v>       0.39441628       0.03110717      -0.49834293 </v>
   <v>       0.30115464      -0.06206538       0.49983936 </v>
   <v>      -0.30343511      -0.36470241      -0.49786072 </v>
   <v>       0.36333722      -0.03098788      -0.49978218 </v>
  </varray>
 </structure>
 <varray name="primitive_index" >
  <v type="int" >        1 </v>
  <v type="int" >       22 </v>
  <v type="int" >       17 </v>
  <v type="int" >      109 </v>
  <v type="int" >       20 </v>
  <v type="int" >       15 </v>
  <v type="int" >       76 </v>
  <v type="int" >       71 </v>
  <v type="int" >       36 </v>
  <v type="int" >      138 </v>
  <v type="int" >      115 </v>
  <v type="int" >       74 </v>
  <v type="int" >       69 </v>
  <v type="int" >       90 </v>
  <v type="int" >      119 </v>
  <v type="int" >      116 </v>
  <v type="int" >       56 </v>
  <v type="int" >       57 </v>
  <v type="int" >       72 </v>
  <v type="int" >       78 </v>
  <v type="int" >      124 </v>
  <v type="int" >      117 </v>
  <v type="int" >       70 </v>
  <v type="int" >       77 </v>
  <v type="int" >      137 </v>
  <v type="int" >        2 </v>
  <v type="int" >        3 </v>
  <v type="int" >       18 </v>
  <v type="int" >       24 </v>
  <v type="int" >       75 </v>
  <v type="int" >       68 </v>
  <v type="int" >      135 </v>
  <v type="int" >      118 </v>
  <v type="int" >       73 </v>
  <v type="int" >       67 </v>
  <v type="int" >       16 </v>
  <v type="int" >       23 </v>
  <v type="int" >        4 </v>
  <v type="int" >        5 </v>
  <v type="int" >       89 </v>
  <v type="int" >       88 </v>
  <v type="int" >       14 </v>
  <v type="int" >       21 </v>
  <v type="int" >       51 </v>
  <v type="int" >       26 </v>
  <v type="int" >       58 </v>
  <v type="int" >       59 </v>
  <v type="int" >      120 </v>
  <v type="int" >      139 </v>
  <v type="int" >      105 </v>
  <v type="int" >       80 </v>
  <v type="int" >       13 </v>
  <v type="int" >       19 </v>
  <v type="int" >       49 </v>
  <v type="int" >       25 </v>
  <v type="int" >       37 </v>
  <v type="int" >        7 </v>
  <v type="int" >       35 </v>
  <v type="int" >       34 </v>
  <v type="int" >       53 </v>
  <v type="int" >       28 </v>
  <v type="int" >      103 </v>
  <v type="int" >       79 </v>
  <v type="int" >      110 </v>
  <v type="int" >      125 </v>
  <v type="int" >       12 </v>
  <v type="int" >       42 </v>
  <v type="int" >       66 </v>
  <v type="int" >       96 </v>
  <v type="int" >       11 </v>
  <v type="int" >       40 </v>
  <v type="int" >       47 </v>
  <v type="int" >       46 </v>
  <v type="int" >       33 </v>
  <v type="int" >       32 </v>
  <v type="int" >       45 </v>
  <v type="int" >      129 </v>
  <v type="int" >       44 </v>
  <v type="int" >      136 </v>
  <v type="int" >       65 </v>
  <v type="int" >       94 </v>
  <v type="int" >       91 </v>
  <v type="int" >       61 </v>
  <v type="int" >      107 </v>
  <v type="int" >       82 </v>
  <v type="int" >       60 </v>
  <v type="int" >       87 </v>
  <v type="int" >       86 </v>
  <v type="int" >      134 </v>
  <v type="int" >      122 </v>
  <v type="int" >       55 </v>
  <v type="int" >       38 </v>
  <v type="int" >      123 </v>
  <v type="int" >      130 </v>
  <v type="int" >        9 </v>
  <v type="int" >       54 </v>
  <v type="int" >       30 </v>
  <v type="int" >       81 </v>
  <v type="int" >      104 </v>
  <v type="int" >      101 </v>
  <v type="int" >      100 </v>
  <v type="int" >      111 </v>
  <v type="int" >       99 </v>
  <v type="int" >       98 </v>
  <v type="int" >      133 </v>
  <v type="int" >      114 </v>
  <v type="int" >      113 </v>
  <v type="int" >      112 </v>
  <v type="int" >      132 </v>
  <v type="int" >      127 </v>
  <v type="int" >        6 </v>
  <v type="int" >       93 </v>
  <v type="int" >       62 </v>
  <v type="int" >      140 </v>
  <v type="int" >      128 </v>
  <v type="int" >       63 </v>
  <v type="int" >       92 </v>
  <v type="int" >       64 </v>
  <v type="int" >       95 </v>
  <v type="int" >       84 </v>
  <v type="int" >      108 </v>
  <v type="int" >      121 </v>
  <v type="int" >      126 </v>
  <v type="int" >      106 </v>
  <v type="int" >       83 </v>
  <v type="int" >       27 </v>
  <v type="int" >       39 </v>
  <v type="int" >       50 </v>
  <v type="int" >        8 </v>
  <v type="int" >      131 </v>
  <v type="int" >       85 </v>
  <v type="int" >      102 </v>
  <v type="int" >       29 </v>
  <v type="int" >       52 </v>
  <v type="int" >       48 </v>
  <v type="int" >       97 </v>
  <v type="int" >       10 </v>
  <v type="int" >       41 </v>
  <v type="int" >       31 </v>
  <v type="int" >       43 </v>
 </varray>
 <kpoints>
  <generation param="Gamma">
   <v type="int" name="divisions">       3        3        1 </v>
   <v name="usershift">      0.00000000       0.00000000       0.00000000 </v>
   <v name="genvec1">      0.33333333       0.00000000       0.00000000 </v>
   <v name="genvec2">      0.00000000       0.33333333       0.00000000 </v>
   <v name="genvec3">      0.00000000       0.00000000       1.00000000 </v>
   <v name="shift">      0.00000000       0.00000000       0.00000000 </v>
  </generation>
  <varray name="kpointlist" >
   <v>       0.00000000       0.00000000       0.00000000 </v>
   <v>       0.33333333      -0.00000000       0.00000000 </v>
   <v>       0.00000000       0.33333333       0.00000000 </v>
   <v>       0.33333333       0.33333333       0.00000000 </v>
   <v>      -0.33333333       0.33333333       0.00000000 </v>
  </varray>
  <varray name="weights" >
   <v>       0.11111111 </v>
   <v>       0.22222222 </v>
   <v>       0.22222222 </v>
   <v>       0.22222222 </v>
   <v>       0.22222222 </v>
  </varray>
 </kpoints>
 <parameters>
  <separator name="general" >
   <i type="string" name="SYSTEM">membrane</i>
   <i type="logical" name="LCOMPAT"> F  </i>
  </separator>
  <separator name="electronic" >
   <i type="string" name="PREC">normal</i>
   <i name="ENMAX">    500.00000000</i>
   <i name="ENAUG">    644.87300000</i>
   <i name="EDIFF">      0.00000100</i>
   <i type="int" name="IALGO">    68</i>
   <i type="int" name="IWAVPR">    11</i>
   <i type="int" name="NBANDS">   592</i>
   <i name="NELECT">    868.00000000</i>
   <i type="int" name="TURBO">     0</i>
   <i type="int" name="IRESTART">     0</i>
   <i type="int" name="NREBOOT">     0</i>
   <i type="int" name="NMIN">     0</i>
   <i name="EREF">      0.00000000</i>
   <separator name="electronic smearing" >
    <i type="int" name="ISMEAR">     0</i>
    <i name="SIGMA">      0.05000000</i>
    <i name="KSPACING">      0.50000000</i>
    <i type="logical" name="KGAMMA"> T  </i>
   </separator>
   <separator name="electronic projectors" >
    <i type="logical" name="LREAL"> F  </i>
    <v name="ROPT">      0.00000000      0.00000000      0.00000000      0.00000000      0.00000000</v>
    <i type="int" name="LMAXPAW">  -100</i>
    <i type="int" name="LMAXMIX">     2</i>
    <i type="logical" name="NLSPLINE"> F  </i>
   </separator>
   <separator name="electronic startup" >
    <i type="int" name="ISTART">     0</i>
    <i type="int" name="ICHARG">     2</i>
    <i type="int" name="INIWAV">     1</i>
   </separator>
   <separator name="electronic spin" >
    <i type="int" name="ISPIN">     2</i>
    <i type="logical" name="LNONCOLLINEAR"> F  </i>
    <v name="MAGMOM">      1.00000000      1.00000000      1.00000000      1.00000000      1.00000000      1.00000000      1.00000000      1.00000000      1.00000000      1.00000000      1.00000000      1.00000000      1.00000000      1.00000000      1.00000000      1.00000000      1.00000000      1.00000000      1.00000000      1.00000000
      1.00000000      1.00000000      1.00000000      1.00000000      1.00000000      1.00000000      1.00000000      1.00000000      1.00000000      1.00000000      1.00000000      1.00000000      1.00000000      1.00000000      1.00000000      1.00000000      1.00000000      1.00000000      1.00000000      1.00000000
      1.00000000      1.00000000      1.00000000      1.00000000      1.00000000      1.00000000      1.00000000      1.00000000      1.00000000      1.00000000      1.00000000      1.00000000      1.00000000      1.00000000      1.00000000      1.00000000      1.00000000      1.00000000      1.00000000      1.00000000
      1.00000000      1.00000000      1.00000000      1.00000000      1.00000000      1.00000000      1.00000000      1.00000000      1.00000000      1.00000000      1.00000000      1.00000000      1.00000000      1.00000000      1.00000000      1.00000000      1.00000000      1.00000000      1.00000000      1.00000000
      1.00000000      1.00000000      1.00000000      1.00000000      1.00000000      1.00000000      1.00000000      1.00000000      1.00000000      1.00000000      1.00000000      1.00000000      1.00000000      1.00000000      1.00000000      1.00000000      1.00000000      1.00000000      1.00000000      1.00000000
      1.00000000      1.00000000      1.00000000      1.00000000      1.00000000      1.00000000      1.00000000      1.00000000      1.00000000      1.00000000      1.00000000      1.00000000      1.00000000      1.00000000      1.00000000      1.00000000      1.00000000      1.00000000      1.00000000      1.00000000
      1.00000000      1.00000000      1.00000000      1.00000000      1.00000000      1.00000000      1.00000000      1.00000000      1.00000000      1.00000000      1.00000000      1.00000000      1.00000000      1.00000000      1.00000000      1.00000000      1.00000000      1.00000000      1.00000000      1.00000000
</v>
    <i name="NUPDOWN">     -1.00000000</i>
    <i type="logical" name="LSORBIT"> F  </i>
    <v name="SAXIS">      0.00000000      0.00000000      1.00000000</v>
    <i type="logical" name="LSPIRAL"> F  </i>
    <v name="QSPIRAL">      0.00000000      0.00000000      0.00000000</v>
    <i type="logical" name="LZEROZ"> F  </i>
   </separator>
   <separator name="electronic exchange-correlation" >
    <i type="logical" name="LASPH"> F  </i>
    <i type="logical" name="LMETAGGA"> F  </i>
   </separator>
   <separator name="electronic convergence" >
    <i type="int" name="NELM">    60</i>
    <i type="int" name="NELMDL">    -5</i>
    <i type="int" name="NELMIN">     2</i>
    <i name="ENINI">    500.00000000</i>
    <separator name="electronic convergence detail" >
     <i type="logical" name="LDIAG"> T  </i>
     <i type="logical" name="LSUBROT"> F  </i>
     <i name="WEIMIN">      0.00100000</i>
     <i name="EBREAK">      0.00000000</i>
     <i name="DEPER">      0.30000000</i>
     <i type="int" name="NRMM">     4</i>
     <i name="TIME">      0.40000000</i>
    </separator>
   </separator>
   <separator name="electronic mixer" >
    <i name="AMIX">      0.40000000</i>
    <i name="BMIX">      1.00000000</i>
    <i name="AMIN">      0.10000000</i>
    <i name="AMIX_MAG">      1.60000000</i>
    <i name="BMIX_MAG">      1.00000000</i>
    <separator name="electronic mixer details" >
     <i type="int" name="IMIX">     4</i>
     <i type="logical" name="MIXFIRST"> F  </i>
     <i type="int" name="MAXMIX">   -45</i>
     <i name="WC">    100.00000000</i>
     <i type="int" name="INIMIX">     1</i>
     <i type="int" name="MIXPRE">     1</i>
     <i type="int" name="MREMOVE">     5</i>
    </separator>
   </separator>
   <separator name="electronic dipolcorrection" >
    <i type="logical" name="LDIPOL"> F  </i>
    <i type="logical" name="LMONO"> F  </i>
    <i type="int" name="IDIPOL">     0</i>
    <i name="EPSILON">      1.00000000</i>
    <v name="DIPOL">   -100.00000000   -100.00000000   -100.00000000</v>
    <i name="EFIELD">      0.00000000</i>
   </separator>
  </separator>
  <separator name="grids" >
   <i type="int" name="NGX">   144</i>
   <i type="int" name="NGY">   144</i>
   <i type="int" name="NGZ">   112</i>
   <i type="int" name="NGXF">   288</i>
   <i type="int" name="NGYF">   288</i>
   <i type="int" name="NGZF">   224</i>
   <i type="logical" name="ADDGRID"> F  </i>
  </separator>
  <separator name="ionic" >
   <i type="int" name="NSW">  1000</i>
   <i type="int" name="IBRION">     2</i>
   <i type="int" name="MDALGO">     0</i>
   <i type="int" name="ISIF">     2</i>
   <i name="PSTRESS">      0.00000000</i>
   <i name="EDIFFG">     -0.01000000</i>
   <i type="int" name="NFREE">     1</i>
   <i name="POTIM">      0.50000000</i>
   <i name="SMASS">     -3.00000000</i>
   <i name="SCALEE">      1.00000000</i>
  </separator>
  <separator name="ionic md" >
   <i name="TEBEG">      0.00010000</i>
   <i name="TEEND">      0.00010000</i>
   <i type="int" name="NBLOCK">     1</i>
   <i type="int" name="KBLOCK">  1000</i>
   <i type="int" name="NPACO">   256</i>
   <i name="APACO">     16.00000000</i>
  </separator>
  <separator name="symmetry" >
   <i type="int" name="ISYM">     2</i>
   <i name="SYMPREC">      0.00001000</i>
  </separator>
  <separator name="dos" >
   <i type="int" name="LORBIT">     0</i>
   <v name="RWIGS">     -1.00000000     -1.00000000     -1.00000000     -1.00000000     -1.00000000</v>
   <i type="int" name="NEDOS">   301</i>
   <i name="EMIN">     10.00000000</i>
   <i name="EMAX">    -10.00000000</i>
   <i name="EFERMI">      0.00000000</i>
  </separator>
  <separator name="writing" >
   <i type="int" name="NWRITE">     2</i>
   <i type="logical" name="LWAVE"> F  </i>
   <i type="logical" name="LDOWNSAMPLE"> F  </i>
   <i type="logical" name="LCHARG"> F  </i>
   <i type="logical" name="LPARD"> F  </i>
   <i type="logical" name="LVTOT"> F  </i>
   <i type="logical" name="LVHAR"> F  </i>
   <i type="logical" name="LELF"> F  </i>
   <i type="logical" name="LOPTICS"> F  </i>
   <v name="STM">      0.00000000      0.00000000      0.00000000      0.00000000      0.00000000      0.00000000      0.00000000</v>
  </separator>
  <separator name="performance" >
   <i type="int" name="NPAR">     4</i>
   <i type="int" name="NSIM">     4</i>
   <i type="int" name="NBLK">    -1</i>
   <i type="logical" name="LPLANE"> T  </i>
   <i type="logical" name="LSCALAPACK"> T  </i>
   <i type="logical" name="LSCAAWARE"> F  </i>
   <i type="logical" name="LSCALU"> F  </i>
   <i type="logical" name="LASYNC"> F  </i>
   <i type="logical" name="LORBITALREAL"> F  </i>
  </separator>
  <separator name="miscellaneous" >
   <i type="int" name="IDIOT">     3</i>
   <i type="int" name="ISPECIAL">     0</i>
   <i type="logical" name="LMUSIC"> F  </i>
   <v name="POMASS">     12.01100000     26.98100000     32.06600000     35.45300000     63.54600000</v>
   <v name="DARWINR">      0.00000000      0.00000000      0.00000000      0.00000000      0.00000000</v>
   <v name="DARWINV">      1.00000000      1.00000000      1.00000000      1.00000000      1.00000000</v>
   <i type="logical" name="LCORR"> T  </i>
  </separator>
  <i type="logical" name="GGA_COMPAT"> T  </i>
  <i type="logical" name="LBERRY"> F  </i>
  <i type="int" name="ICORELEVEL">     0</i>
  <i type="logical" name="LDAU"> F  </i>
  <i type="int" name="I_CONSTRAINED_M">     0</i>
  <separator name="electronic exchange-correlation" >
   <i type="string" name="GGA">--</i>
   <i type="int" name="VOSKOWN">     0</i>
   <i type="logical" name="LHFCALC"> F  </i>
   <i type="string" name="PRECFOCK"></i>
   <i type="logical" name="LSYMGRAD"> F  </i>
   <i type="logical" name="LHFONE"> F  </i>
   <i type="logical" name="LRHFCALC"> F  </i>
   <i type="logical" name="LTHOMAS"> F  </i>
   <i type="logical" name="LMODELHF"> F  </i>
   <i name="ENCUT4O">     -1.00000000</i>
   <i type="int" name="EXXOEP">     0</i>
   <i type="int" name="FOURORBIT">     0</i>
   <i name="AEXX">      0.00000000</i>
   <i name="HFALPHA">      0.00000000</i>
   <i name="MCALPHA">      0.00000000</i>
   <i name="ALDAX">      1.00000000</i>
   <i name="AGGAX">      1.00000000</i>
   <i name="ALDAC">      1.00000000</i>
   <i name="AGGAC">      1.00000000</i>
   <i type="int" name="NKREDX">     1</i>
   <i type="int" name="NKREDY">     1</i>
   <i type="int" name="NKREDZ">     1</i>
   <i type="logical" name="SHIFTRED"> F  </i>
   <i type="logical" name="ODDONLY"> F  </i>
   <i type="logical" name="EVENONLY"> F  </i>
   <i type="int" name="LMAXFOCK">     0</i>
   <i type="int" name="NMAXFOCKAE">     0</i>
   <i type="logical" name="LFOCKAEDFT"> F  </i>
   <i name="HFSCREEN">      0.00000000</i>
   <i name="HFSCREENC">      0.00000000</i>
   <i type="int" name="NBANDSGWLOW">     0</i>
  </separator>
  <separator name="vdW DFT" >
   <i type="logical" name="LUSE_VDW"> F  </i>
   <i name="Zab_VDW">     -0.84910000</i>
   <i name="PARAM1">      0.12340000</i>
   <i name="PARAM2">      1.00000000</i>
   <i name="PARAM3">      0.00000000</i>
  </separator>
  <separator name="model GW" >
   <i type="int" name="MODEL_GW">     0</i>
   <i name="MODEL_EPS0">     51.73590577</i>
   <i name="MODEL_ALPHA">      1.00000000</i>
  </separator>
  <separator name="linear response parameters" >
   <i type="logical" name="LEPSILON"> F  </i>
   <i type="logical" name="LRPA"> F  </i>
   <i type="logical" name="LNABLA"> F  </i>
   <i type="logical" name="LVEL"> F  </i>
   <i type="int" name="KINTER">     0</i>
   <i name="CSHIFT">      0.10000000</i>
   <i name="OMEGAMAX">     -1.00000000</i>
   <i name="DEG_THRESHOLD">      0.00200000</i>
   <i name="RTIME">     -0.10000000</i>
   <i name="WPLASMAI">      0.00000000</i>
   <v name="DFIELD">      0.00000000      0.00000000      0.00000000</v>
   <v name="WPLASMA">      0.00000000      0.00000000      0.00000000      0.00000000      0.00000000      0.00000000      0.00000000      0.00000000      0.00000000</v>
  </separator>
  <separator name="orbital magnetization" >
   <i type="logical" name="NUCIND"> F  </i>
   <v name="MAGPOS">      0.00000000      0.00000000      0.00000000</v>
   <i type="logical" name="LNICSALL"> T  </i>
   <i type="logical" name="ORBITALMAG"> F  </i>
   <i type="logical" name="LMAGBLOCH"> F  </i>
   <i type="logical" name="LCHIMAG"> F  </i>
   <i type="logical" name="LGAUGE"> T  </i>
   <i type="int" name="MAGATOM">     0</i>
   <v name="MAGDIPOL">      0.00000000      0.00000000      0.00000000</v>
   <v name="AVECCONST">      0.00000000      0.00000000      0.00000000</v>
  </separator>
  <separator name="response functions" >
   <i type="logical" name="LADDER"> F  </i>
   <i type="logical" name="LRPAFORCE"> F  </i>
   <i type="logical" name="LFXC"> F  </i>
   <i type="logical" name="LHARTREE"> T  </i>
   <i type="int" name="IBSE">     0</i>
   <v type="int" name="KPOINT">    -1     0     0     0</v>
   <i type="logical" name="LTCTE"> F  </i>
   <i type="logical" name="LTETE"> F  </i>
   <i type="logical" name="LTRIPLET"> F  </i>
   <i type="logical" name="LFXCEPS"> F  </i>
   <i type="logical" name="LFXHEG"> F  </i>
   <i type="int" name="NATURALO">     2</i>
   <i type="logical" name="L2ORDER"> F  </i>
   <i type="logical" name="LMP2LT"> F  </i>
   <i type="logical" name="LUSEW"> F  </i>
   <i name="ENCUTGW">     -2.00000000</i>
   <i name="ENCUTGWSOFT">     -2.00000000</i>
   <i name="ENCUTLF">     -1.00000000</i>
   <i type="int" name="LMAXMP2">    -1</i>
   <i name="SCISSOR">      0.00000000</i>
   <i type="int" name="NOMEGA">     0</i>
   <i type="int" name="NOMEGAR">     0</i>
   <i type="int" name="NBANDSGW">    -1</i>
   <i type="int" name="NBANDSO">    -1</i>
   <i type="int" name="NBANDSV">    -1</i>
   <i type="int" name="NELM">     1</i>
   <i type="int" name="NELMHF">     1</i>
   <i type="int" name="DIM">     3</i>
   <i type="int" name="ANTIRES">     0</i>
   <i name="OMEGAMAX">    -30.00000000</i>
   <i name="OMEGAMIN">    -30.00000000</i>
   <i name="OMEGATL">   -200.00000000</i>
   <i type="int" name="OMEGAGRID">   140</i>
   <i name="CSHIFT">     -0.10000000</i>
   <i type="logical" name="SELFENERGY"> F  </i>
   <i type="logical" name="LSPECTRAL"> F  </i>
   <i type="logical" name="LSPECTRALGW"> F  </i>
   <i type="logical" name="LSINGLES"> F  </i>
   <i type="logical" name="LFERMIGW"> F  </i>
   <i type="logical" name="ODDONLYGW"> F  </i>
   <i type="logical" name="EVENONLYGW"> F  </i>
   <i type="int" name="NKREDLFX">     1</i>
   <i type="int" name="NKREDLFY">     1</i>
   <i type="int" name="NKREDLFZ">     1</i>
   <i type="int" name="MAXMEM">  2800</i>
   <i type="int" name="TELESCOPE">     0</i>
   <i type="int" name="TAUPAR">     1</i>
   <i type="int" name="OMEGAPAR">    -1</i>
   <i name="LAMBDA">      1.00000000</i>
  </separator>
  <separator name="External order field" >
   <i name="OFIELD_KAPPA">      0.00000000</i>
   <v name="OFIELD_K">      0.00000000      0.00000000      0.00000000</v>
   <i name="OFIELD_Q6_NEAR">      0.00000000</i>
   <i name="OFIELD_Q6_FAR">      0.00000000</i>
   <i name="OFIELD_A">      0.00000000</i>
  </separator>
  <separator name="solvation model" >
   <i type="logical" name="LSOL"> F  </i>
  </separator>
 </parameters>
 <atominfo>
  <atoms>     140 </atoms>
  <types>       5 </types>
  <array name="atoms" >
   <dimension dim="1">ion</dimension>
   <field type="string">element</field>
   <field type="int">atomtype</field>
   <set>
    <rc><c>C </c><c>   1</c></rc>
    <rc><c>C </c><c>   1</c></rc>
    <rc><c>C </c><c>   1</c></rc>
    <rc><c>C </c><c>   1</c></rc>
    <rc><c>C </c><c>   1</c></rc>
    <rc><c>C </c><c>   1</c></rc>
    <rc><c>C </c><c>   1</c></rc>
    <rc><c>C </c><c>   1</c></rc>
    <rc><c>C </c><c>   1</c></rc>
    <rc><c>C </c><c>   1</c></rc>
    <rc><c>C </c><c>   1</c></rc>
    <rc><c>C </c><c>   1</c></rc>
    <rc><c>C </c><c>   1</c></rc>
    <rc><c>C </c><c>   1</c></rc>
    <rc><c>C </c><c>   1</c></rc>
    <rc><c>C </c><c>   1</c></rc>
    <rc><c>C </c><c>   1</c></rc>
    <rc><c>C </c><c>   1</c></rc>
    <rc><c>C </c><c>   1</c></rc>
    <rc><c>C </c><c>   1</c></rc>
    <rc><c>C </c><c>   1</c></rc>
    <rc><c>C </c><c>   1</c></rc>
    <rc><c>C </c><c>   1</c></rc>
    <rc><c>C </c><c>   1</c></rc>
    <rc><c>C </c><c>   1</c></rc>
    <rc><c>C </c><c>   1</c></rc>
    <rc><c>C </c><c>   1</c></rc>
    <rc><c>C </c><c>   1</c></rc>
    <rc><c>C </c><c>   1</c></rc>
    <rc><c>C </c><c>   1</c></rc>
    <rc><c>C </c><c>   1</c></rc>
    <rc><c>C </c><c>   1</c></rc>
    <rc><c>C </c><c>   1</c></rc>
    <rc><c>C </c><c>   1</c></rc>
    <rc><c>C </c><c>   1</c></rc>
    <rc><c>C </c><c>   1</c></rc>
    <rc><c>C </c><c>   1</c></rc>
    <rc><c>C </c><c>   1</c></rc>
    <rc><c>C </c><c>   1</c></rc>
    <rc><c>C </c><c>   1</c></rc>
    <rc><c>C </c><c>   1</c></rc>
    <rc><c>C </c><c>   1</c></rc>
    <rc><c>C </c><c>   1</c></rc>
    <rc><c>C </c><c>   1</c></rc>
    <rc><c>C </c><c>   1</c></rc>
    <rc><c>C </c><c>   1</c></rc>
    <rc><c>C </c><c>   1</c></rc>
    <rc><c>C </c><c>   1</c></rc>
    <rc><c>C </c><c>   1</c></rc>
    <rc><c>C </c><c>   1</c></rc>
    <rc><c>C </c><c>   1</c></rc>
    <rc><c>C </c><c>   1</c></rc>
    <rc><c>C </c><c>   1</c></rc>
    <rc><c>C </c><c>   1</c></rc>
    <rc><c>Al</c><c>   2</c></rc>
    <rc><c>S </c><c>   3</c></rc>
    <rc><c>S </c><c>   3</c></rc>
    <rc><c>S </c><c>   3</c></rc>
    <rc><c>S </c><c>   3</c></rc>
    <rc><c>S </c><c>   3</c></rc>
    <rc><c>S </c><c>   3</c></rc>
    <rc><c>S </c><c>   3</c></rc>
    <rc><c>S </c><c>   3</c></rc>
    <rc><c>S </c><c>   3</c></rc>
    <rc><c>S </c><c>   3</c></rc>
    <rc><c>S </c><c>   3</c></rc>
    <rc><c>S </c><c>   3</c></rc>
    <rc><c>S </c><c>   3</c></rc>
    <rc><c>S </c><c>   3</c></rc>
    <rc><c>S </c><c>   3</c></rc>
    <rc><c>S </c><c>   3</c></rc>
    <rc><c>S </c><c>   3</c></rc>
    <rc><c>S </c><c>   3</c></rc>
    <rc><c>S </c><c>   3</c></rc>
    <rc><c>S </c><c>   3</c></rc>
    <rc><c>S </c><c>   3</c></rc>
    <rc><c>S </c><c>   3</c></rc>
    <rc><c>S </c><c>   3</c></rc>
    <rc><c>S </c><c>   3</c></rc>
    <rc><c>S </c><c>   3</c></rc>
    <rc><c>S </c><c>   3</c></rc>
    <rc><c>S </c><c>   3</c></rc>
    <rc><c>S </c><c>   3</c></rc>
    <rc><c>S </c><c>   3</c></rc>
    <rc><c>S </c><c>   3</c></rc>
    <rc><c>S </c><c>   3</c></rc>
    <rc><c>S </c><c>   3</c></rc>
    <rc><c>S </c><c>   3</c></rc>
    <rc><c>S </c><c>   3</c></rc>
    <rc><c>S </c><c>   3</c></rc>
    <rc><c>S </c><c>   3</c></rc>
    <rc><c>S </c><c>   3</c></rc>
    <rc><c>S </c><c>   3</c></rc>
    <rc><c>S </c><c>   3</c></rc>
    <rc><c>S </c><c>   3</c></rc>
    <rc><c>S </c><c>   3</c></rc>
    <rc><c>S </c><c>   3</c></rc>
    <rc><c>S </c><c>   3</c></rc>
    <rc><c>S </c><c>   3</c></rc>
    <rc><c>S </c><c>   3</c></rc>
    <rc><c>S </c><c>   3</c></rc>
    <rc><c>S </c><c>   3</c></rc>
    <rc><c>S </c><c>   3</c></rc>
    <rc><c>S </c><c>   3</c></rc>
    <rc><c>S </c><c>   3</c></rc>
    <rc><c>S </c><c>   3</c></rc>
    <rc><c>S </c><c>   3</c></rc>
    <rc><c>S </c><c>   3</c></rc>
    <rc><c>S </c><c>   3</c></rc>
    <rc><c>Cl</c><c>   4</c></rc>
    <rc><c>Cl</c><c>   4</c></rc>
    <rc><c>Cl</c><c>   4</c></rc>
    <rc><c>Cl</c><c>   4</c></rc>
    <rc><c>Cu</c><c>   5</c></rc>
    <rc><c>Cu</c><c>   5</c></rc>
    <rc><c>Cu</c><c>   5</c></rc>
    <rc><c>Cu</c><c>   5</c></rc>
    <rc><c>Cu</c><c>   5</c></rc>
    <rc><c>Cu</c><c>   5</c></rc>
    <rc><c>Cu</c><c>   5</c></rc>
    <rc><c>Cu</c><c>   5</c></rc>
    <rc><c>Cu</c><c>   5</c></rc>
    <rc><c>Cu</c><c>   5</c></rc>
    <rc><c>Cu</c><c>   5</c></rc>
    <rc><c>Cu</c><c>   5</c></rc>
    <rc><c>Cu</c><c>   5</c></rc>
    <rc><c>Cu</c><c>   5</c></rc>
    <rc><c>Cu</c><c>   5</c></rc>
    <rc><c>Cu</c><c>   5</c></rc>
    <rc><c>Cu</c><c>   5</c></rc>
    <rc><c>Cu</c><c>   5</c></rc>
    <rc><c>Cu</c><c>   5</c></rc>
    <rc><c>Cu</c><c>   5</c></rc>
    <rc><c>Cu</c><c>   5</c></rc>
    <rc><c>Cu</c><c>   5</c></rc>
    <rc><c>Cu</c><c>   5</c></rc>
    <rc><c>Cu</c><c>   5</c></rc>
    <rc><c>Cu</c><c>   5</c></rc>
    <rc><c>Cu</c><c>   5</c></rc>
    <rc><c>Cu</c><c>   5</c></rc>
   </set>
  </array>
  <array name="atomtypes" >
   <dimension dim="1">type</dimension>
   <field type="int">atomspertype</field>
   <field type="string">element</field>
   <field>mass</field>
   <field>valence</field>
   <field type="string">pseudopotential</field>
   <set>
    <rc><c>  54</c><c>C </c><c>     12.01100000</c><c>      4.00000000</c><c>  PAW_PBE C 08Apr2002                   </c></rc>
    <rc><c>   1</c><c>Al</c><c>     26.98100000</c><c>      3.00000000</c><c>  PAW_PBE Al 04Jan2001                  </c></rc>
    <rc><c>  54</c><c>S </c><c>     32.06600000</c><c>      6.00000000</c><c>  PAW_PBE S 06Sep2000                   </c></rc>
    <rc><c>   4</c><c>Cl</c><c>     35.45300000</c><c>      7.00000000</c><c>  PAW_PBE Cl 06Sep2000                  </c></rc>
    <rc><c>  27</c><c>Cu</c><c>     63.54600000</c><c>     11.00000000</c><c>  PAW_PBE Cu 22Jun2005                  </c></rc>
   </set>
  </array>
 </atominfo>
 <structure name="initialpos" >
  <crystal>
   <varray name="basis" >
    <v>      26.26650047       0.00000000       0.00000000 </v>
    <v>     -13.13288029      22.74974710       0.00000000 </v>
    <v>       0.00000000       0.00000000      20.20179939 </v>
   </varray>
   <i name="volume">  12071.71134534 </i>
   <varray name="rec_basis" >
    <v>       0.03807131       0.02197765       0.00000000 </v>
    <v>       0.00000000       0.04395653       0.00000000 </v>
    <v>       0.00000000       0.00000000       0.04950054 </v>
   </varray>
  </crystal>
  <varray name="positions" >
   <v>       0.02969555       0.30220391       0.50015238 </v>
   <v>       0.02981443       0.06202868       0.50016441 </v>
   <v>       0.27004115       0.30216559       0.49990992 </v>
   <v>       0.06087769       0.03095080       0.50028749 </v>
   <v>       0.30111063       0.27105907       0.50062393 </v>
   <v>       0.30123018       0.03112363       0.50063493 </v>
   <v>       0.36328104       0.30210390       0.50132839 </v>
   <v>       0.36339285       0.06221966       0.50176641 </v>
   <v>       0.60313202       0.30193842       0.50777963 </v>
   <v>       0.39441628       0.03110717       0.50165707 </v>
   <v>       0.63436527       0.27088739       0.50989239 </v>
   <v>       0.63436617       0.03116723       0.50077092 </v>
   <v>       0.69654115       0.30206733       0.50634686 </v>
   <v>       0.69644495       0.06221444       0.50093878 </v>
   <v>       0.93647647       0.30216643       0.50139538 </v>
   <v>       0.72752587       0.03112669       0.50037064 </v>
   <v>       0.96754091       0.27110165       0.50071093 </v>
   <v>       0.96765088       0.03094371       0.50029435 </v>
   <v>       0.02972816       0.63533678       0.49999301 </v>
   <v>       0.02962348       0.39529673       0.50042590 </v>
   <v>       0.26990204       0.63545515       0.50032798 </v>
   <v>       0.06067661       0.36420968       0.50007275 </v>
   <v>       0.30098857       0.60436168       0.50018750 </v>
   <v>       0.30110697       0.36426916       0.49987407 </v>
   <v>       0.36315320       0.63545862       0.50034328 </v>
   <v>       0.36328510       0.39535196       0.50036748 </v>
   <v>       0.60323888       0.63529658       0.50047799 </v>
   <v>       0.39439547       0.36429936       0.50117598 </v>
   <v>       0.63428912       0.60415951       0.50193467 </v>
   <v>       0.63427304       0.36425494       0.50909793 </v>
   <v>       0.69656489       0.63529759       0.50213928 </v>
   <v>       0.69660429       0.39546048       0.50825635 </v>
   <v>       0.93646021       0.63528991       0.50080811 </v>
   <v>       0.72768538       0.36434598       0.50763775 </v>
   <v>       0.96756801       0.60423435       0.50069236 </v>
   <v>       0.96748790       0.36421456       0.50121885 </v>
   <v>       0.02982685       0.96883304       0.50021211 </v>
   <v>       0.02971784       0.72855599       0.50000658 </v>
   <v>       0.27014639       0.96899513       0.50002193 </v>
   <v>       0.06080764       0.69752158       0.50002838 </v>
   <v>       0.30115464       0.93793462       0.49983936 </v>
   <v>       0.30098722       0.69761695       0.50018229 </v>
   <v>       0.36333722       0.96901212       0.50021782 </v>
   <v>       0.36314741       0.72870658       0.50023695 </v>
   <v>       0.60330140       0.96904037       0.50008639 </v>
   <v>       0.39425200       0.69760866       0.50021826 </v>
   <v>       0.63439688       0.93796574       0.49998925 </v>
   <v>       0.63432936       0.69748732       0.49995068 </v>
   <v>       0.69642713       0.96897258       0.50015784 </v>
   <v>       0.69647380       0.72856425       0.49987315 </v>
   <v>       0.93659782       0.96881968       0.50016267 </v>
   <v>       0.72760542       0.69750112       0.50063359 </v>
   <v>       0.96766536       0.93775207       0.50019217 </v>
   <v>       0.96756303       0.69747709       0.50030720 </v>
   <v>       0.65617294       0.33468285       0.70935222 </v>
   <v>       0.06783566       0.13813144       0.49963894 </v>
   <v>       0.19389445       0.26411460       0.49957369 </v>
   <v>       0.13699486       0.06903694       0.50061523 </v>
   <v>       0.26300051       0.19498776       0.50113653 </v>
   <v>       0.26314580       0.06916195       0.50033367 </v>
   <v>       0.40142371       0.26417726       0.50251930 </v>
   <v>       0.40163985       0.13834154       0.50342559 </v>
   <v>       0.52776954       0.26422459       0.50142805 </v>
   <v>       0.47057567       0.06925417       0.50349804 </v>
   <v>       0.59691052       0.19576886       0.51940313 </v>
   <v>       0.59633389       0.06933419       0.50129914 </v>
   <v>       0.73412515       0.26434310       0.49811475 </v>
   <v>       0.73439039       0.13837007       0.50185622 </v>
   <v>       0.86031079       0.26412962       0.50275129 </v>
   <v>       0.80364587       0.06913348       0.50008462 </v>
   <v>       0.92952870       0.19495780       0.50105553 </v>
   <v>       0.92960875       0.06900651       0.50069643 </v>
   <v>       0.06781766       0.59735392       0.49887410 </v>
   <v>       0.06771945       0.47142986       0.50005873 </v>
   <v>       0.19384161       0.59742150       0.50106076 </v>
   <v>       0.13690753       0.40235423       0.49983130 </v>
   <v>       0.26291093       0.52828669       0.49981762 </v>
   <v>       0.26301968       0.40232827       0.49959297 </v>
   <v>       0.40116993       0.59740444       0.50106430 </v>
   <v>       0.40127614       0.47142953       0.50019184 </v>
   <v>       0.52720746       0.59730608       0.49930061 </v>
   <v>       0.47049658       0.40221478       0.50210431 </v>
   <v>       0.59639210       0.52815775       0.50362098 </v>
   <v>       0.59643927       0.40183521       0.51387534 </v>
   <v>       0.73441888       0.59718337       0.50459892 </v>
   <v>       0.73435760       0.47102679       0.50682401 </v>
   <v>       0.86038608       0.59715675       0.50149790 </v>
   <v>       0.80328228       0.40211188       0.51038994 </v>
   <v>       0.92944879       0.52814984       0.50136587 </v>
   <v>       0.92932702       0.40224185       0.50215338 </v>
   <v>       0.06787358       0.93076035       0.49996285 </v>
   <v>       0.06776983       0.80469877       0.49996816 </v>
   <v>       0.19394392       0.93090003       0.49996207 </v>
   <v>       0.13693905       0.73561103       0.50052704 </v>
   <v>       0.26305113       0.86175600       0.49939687 </v>
   <v>       0.26294713       0.73565525       0.49990779 </v>
   <v>       0.40133344       0.93089351       0.49879775 </v>
   <v>       0.40116553       0.80477168       0.50054698 </v>
   <v>       0.52717364       0.93094010       0.49931227 </v>
   <v>       0.47033193       0.73567091       0.50005016 </v>
   <v>       0.59625438       0.86176445       0.49990342 </v>
   <v>       0.59627345       0.73553781       0.49971322 </v>
   <v>       0.73452835       0.93085924       0.50066675 </v>
   <v>       0.73448233       0.80467337       0.49922163 </v>
   <v>       0.86047289       0.93075725       0.49973847 </v>
   <v>       0.80362618       0.73555632       0.50001647 </v>
   <v>       0.92960557       0.86165255       0.50012029 </v>
   <v>       0.92955677       0.73555023       0.50037396 </v>
   <v>       0.06777521       0.26407169       0.50004159 </v>
   <v>       0.72257547       0.31746515       0.66858204 </v>
   <v>       0.67039286       0.41845400       0.67275208 </v>
   <v>       0.57158588       0.26717699       0.67198763 </v>
   <v>       0.66063634       0.33622676       0.81480956 </v>
   <v>       0.49905297       0.33310999       0.50628654 </v>
   <v>       0.99867170       0.16653257       0.50032599 </v>
   <v>       0.83196746       0.16662930       0.50214358 </v>
   <v>       0.83169408       0.33307294       0.50441581 </v>
   <v>       0.33209211       0.49989315       0.50051704 </v>
   <v>       0.16531554       0.49990988       0.50040690 </v>
   <v>       0.16538003       0.66647072       0.50050870 </v>
   <v>       0.66524960       0.49940820       0.50811930 </v>
   <v>       0.49882678       0.49976751       0.50260336 </v>
   <v>       0.49868402       0.66642322       0.50048583 </v>
   <v>       0.99861511       0.49980766       0.50167616 </v>
   <v>       0.83185478       0.49956293       0.50537788 </v>
   <v>       0.83201514       0.66636664       0.50256449 </v>
   <v>       0.33210275       0.83325656       0.50046713 </v>
   <v>       0.16539528       0.83325182       0.50035008 </v>
   <v>       0.16546522       0.99998431       0.50042407 </v>
   <v>       0.66535702       0.83322143       0.50024483 </v>
   <v>       0.49868362       0.83327890       0.50062489 </v>
   <v>       0.49887085       0.00011264       0.50202609 </v>
   <v>       0.99864159       0.83316365       0.50057880 </v>
   <v>       0.83205625       0.83317253       0.50035345 </v>
   <v>       0.83208087       0.99994220       0.50042452 </v>
   <v>       0.33228559       0.16664223       0.50286900 </v>
   <v>       0.16537593       0.16655506       0.50039428 </v>
   <v>       0.16536415       0.33320599       0.50000146 </v>
   <v>       0.66516803       0.16679203       0.50560594 </v>
   <v>       0.49938219       0.16675436       0.50805675 </v>
  </varray>
 </structure>
 <calculation>
  <scstep>
   <time name="dav">  229.49  242.89</time>
   <time name="total">  229.81  243.57</time>
   <energy>
    <i name="alphaZ">    315.09161757 </i>
    <i name="ewald"> 108203.64041902 </i>
    <i name="hartreedc">-162772.54080835 </i>
    <i name="XCdc">   2664.84438185 </i>
    <i name="pawpsdc">  52118.65182442 </i>
    <i name="pawaedc"> -54801.79846914 </i>
    <i name="eentropy">     -0.10589552 </i>
    <i name="bandstr">    -39.62156106 </i>
    <i name="atom">  62143.14740716 </i>
    <i name="e_fr_energy">   7831.30891594 </i>
    <i name="e_wo_entrp">   7831.41481146 </i>
    <i name="e_0_energy">   7831.36186370 </i>
   </energy>
  </scstep>
  <scstep>
   <time name="dav">  270.91  286.32</time>
   <time name="total">  270.92  286.32</time>
   <energy>
    <i name="e_fr_energy">    999.56223073 </i>
    <i name="e_wo_entrp">    999.59690515 </i>
    <i name="e_0_energy">    999.57956794 </i>
   </energy>
  </scstep>
  <scstep>
   <time name="dav">  310.15  327.51</time>
   <time name="total">  310.16  327.51</time>
   <energy>
    <i name="e_fr_energy">   -740.86907409 </i>
    <i name="e_wo_entrp">   -740.76747833 </i>
    <i name="e_0_energy">   -740.81827621 </i>
   </energy>
  </scstep>
  <scstep>
   <time name="dav">  338.74  357.65</time>
   <time name="total">  338.75  357.65</time>
   <energy>
    <i name="e_fr_energy">   -903.85138260 </i>
    <i name="e_wo_entrp">   -903.71229685 </i>
    <i name="e_0_energy">   -903.78183972 </i>
   </energy>
  </scstep>
  <scstep>
   <time name="dav">  349.03  368.36</time>
   <time name="total">  351.16  370.59</time>
   <energy>
    <i name="e_fr_energy">   -909.96282755 </i>
    <i name="e_wo_entrp">   -909.76302698 </i>
    <i name="e_0_energy">   -909.86292727 </i>
   </energy>
  </scstep>
  <scstep>
   <time name="diag">   12.60   15.27</time>
   <time name="diis">  194.33  197.65</time>
   <time name="orth">    2.93    4.52</time>
   <time name="total">  212.28  220.28</time>
   <energy>
    <i name="e_fr_energy">   -867.30655113 </i>
    <i name="e_wo_entrp">   -867.24757042 </i>
    <i name="e_0_energy">   -867.27706077 </i>
   </energy>
  </scstep>
  <scstep>
   <time name="diag">   12.57   15.25</time>
   <time name="diis">  167.97  170.79</time>
   <time name="orth">    2.92    4.51</time>
   <time name="total">  185.87  193.36</time>
   <energy>
    <i name="e_fr_energy">   -589.95494311 </i>
    <i name="e_wo_entrp">   -589.94074201 </i>
    <i name="e_0_energy">   -589.94784256 </i>
   </energy>
  </scstep>
  <scstep>
   <time name="diag">   12.58   15.27</time>
   <time name="diis">  183.44  186.60</time>
   <time name="orth">    2.93    4.50</time>
   <time name="total">  201.38  209.20</time>
   <energy>
    <i name="e_fr_energy">   -651.01452143 </i>
    <i name="e_wo_entrp">   -650.95421864 </i>
    <i name="e_0_energy">   -650.98437004 </i>
   </energy>
  </scstep>
  <scstep>
   <time name="diag">   12.57   15.21</time>
   <time name="diis">  178.79  181.88</time>
   <time name="orth">    2.88    4.45</time>
   <time name="total">  196.66  204.35</time>
   <energy>
    <i name="e_fr_energy">   -604.86267357 </i>
    <i name="e_wo_entrp">   -604.78879270 </i>
    <i name="e_0_energy">   -604.82573313 </i>
   </energy>
  </scstep>
  <scstep>
   <time name="diag">   12.60   15.26</time>
   <time name="diis">  167.12  169.99</time>
   <time name="orth">    2.93    4.51</time>
   <time name="total">  185.09  192.57</time>
   <energy>
    <i name="e_fr_energy">   -643.16352406 </i>
    <i name="e_wo_entrp">   -643.10609313 </i>
    <i name="e_0_energy">   -643.13480859 </i>
   </energy>
  </scstep>
  <scstep>
   <time name="diag">   12.64   15.31</time>
   <time name="diis">  169.92  172.85</time>
   <time name="orth">    2.90    4.48</time>
   <time name="total">  187.90  195.46</time>
   <energy>
    <i name="e_fr_energy">   -692.35516040 </i>
    <i name="e_wo_entrp">   -692.30388634 </i>
    <i name="e_0_energy">   -692.32952337 </i>
   </energy>
  </scstep>
  <scstep>
   <time name="diag">   12.63   15.28</time>
   <time name="diis">  175.69  178.74</time>
   <time name="orth">    2.93    4.51</time>
   <time name="total">  193.74  201.41</time>
   <energy>
    <i name="e_fr_energy">   -732.74008693 </i>
    <i name="e_wo_entrp">   -732.68187955 </i>
    <i name="e_0_energy">   -732.71098324 </i>
   </energy>
  </scstep>
  <scstep>
   <time name="diag">   12.61   15.27</time>
   <time name="diis">  176.83  179.86</time>
   <time name="orth">    2.89    4.46</time>
   <time name="total">  194.76  202.40</time>
   <energy>
    <i name="e_fr_energy">   -773.58139239 </i>
    <i name="e_wo_entrp">   -773.51514864 </i>
    <i name="e_0_energy">   -773.54827051 </i>
   </energy>
  </scstep>
  <scstep>
   <time name="diag">   12.56   15.20</time>
   <time name="diis">  178.73  181.79</time>
   <time name="orth">    2.89    4.46</time>
   <time name="total">  196.62  204.29</time>
   <energy>
    <i name="e_fr_energy">   -791.70808237 </i>
    <i name="e_wo_entrp">   -791.64453649 </i>
    <i name="e_0_energy">   -791.67630943 </i>
   </energy>
  </scstep>
  <scstep>
   <time name="diag">   12.60   15.26</time>
   <time name="diis">  173.19  176.33</time>
   <time name="orth">    2.90    4.47</time>
   <time name="total">  191.10  198.84</time>
   <energy>
    <i name="e_fr_energy">   -800.98439713 </i>
    <i name="e_wo_entrp">   -800.91247994 </i>
    <i name="e_0_energy">   -800.94843854 </i>
   </energy>
  </scstep>
  <scstep>
   <time name="diag">   12.59   15.24</time>
   <time name="diis">  167.99  170.80</time>
   <time name="orth">    2.89    4.46</time>
   <time name="total">  185.86  193.29</time>
   <energy>
    <i name="e_fr_energy">   -809.68635770 </i>
    <i name="e_wo_entrp">   -809.61674192 </i>
    <i name="e_0_energy">   -809.65154981 </i>
   </energy>
  </scstep>
  <scstep>
   <time name="diag">   12.61   15.26</time>
   <time name="diis">  177.20  180.16</time>
   <time name="orth">    2.90    4.47</time>
   <time name="total">  195.10  202.67</time>
   <energy>
    <i name="e_fr_energy">   -815.17840407 </i>
    <i name="e_wo_entrp">   -815.11398686 </i>
    <i name="e_0_energy">   -815.14619547 </i>
   </energy>
  </scstep>
  <scstep>
   <time name="diag">   12.59   15.24</time>
   <time name="diis">  179.38  182.35</time>
   <time name="orth">    2.90    4.47</time>
   <time name="total">  197.26  204.84</time>
   <energy>
    <i name="e_fr_energy">   -819.46826691 </i>
    <i name="e_wo_entrp">   -819.40745186 </i>
    <i name="e_0_energy">   -819.43785938 </i>
   </energy>
  </scstep>
  <scstep>
   <time name="diag">   12.61   15.28</time>
   <time name="diis">  187.17  190.29</time>
   <time name="orth">    2.97    4.55</time>
   <time name="total">  205.16  212.90</time>
   <energy>
    <i name="e_fr_energy">   -822.83102623 </i>
    <i name="e_wo_entrp">   -822.76109884 </i>
    <i name="e_0_energy">   -822.79606253 </i>
   </energy>
  </scstep>
  <scstep>
   <time name="diag">   12.61   15.27</time>
   <time name="diis">  182.13  185.22</time>
   <time name="orth">    2.94    4.51</time>
   <time name="total">  200.52  208.25</time>
   <energy>
    <i name="e_fr_energy">   -824.27392537 </i>
    <i name="e_wo_entrp">   -824.19257856 </i>
    <i name="e_0_energy">   -824.23325197 </i>
   </energy>
  </scstep>
  <scstep>
   <time name="diag">   12.63   15.29</time>
   <time name="diis">  188.43  191.63</time>
   <time name="orth">    2.90    4.47</time>
   <time name="total">  206.37  214.17</time>
   <energy>
    <i name="e_fr_energy">   -824.96628556 </i>
    <i name="e_wo_entrp">   -824.87611310 </i>
    <i name="e_0_energy">   -824.92119933 </i>
   </energy>
  </scstep>
  <scstep>
   <time name="diag">   12.61   15.27</time>
   <time name="diis">  194.62  197.90</time>
   <time name="orth">    2.89    4.46</time>
   <time name="total">  212.54  220.43</time>
   <energy>
    <i name="e_fr_energy">   -825.64200978 </i>
    <i name="e_wo_entrp">   -825.54596000 </i>
    <i name="e_0_energy">   -825.59398489 </i>
   </energy>
  </scstep>
  <scstep>
   <time name="diag">   12.67   15.34</time>
   <time name="diis">  198.29  201.62</time>
   <time name="orth">    2.89    4.45</time>
   <time name="total">  216.25  224.21</time>
   <energy>
    <i name="e_fr_energy">   -826.16057028 </i>
    <i name="e_wo_entrp">   -826.06282591 </i>
    <i name="e_0_energy">   -826.11169809 </i>
   </energy>
  </scstep>
  <scstep>
   <time name="diag">   12.66   15.32</time>
   <time name="diis">  181.13  184.21</time>
   <time name="orth">    2.92    4.50</time>
   <time name="total">  199.12  206.82</time>
   <energy>
    <i name="e_fr_energy">   -826.77485812 </i>
    <i name="e_wo_entrp">   -826.67706446 </i>
    <i name="e_0_energy">   -826.72596129 </i>
   </energy>
  </scstep>
  <scstep>
   <time name="diag">   12.64   15.30</time>
   <time name="diis">  185.04  188.15</time>
   <time name="orth">    2.92    4.49</time>
   <time name="total">  203.03  210.76</time>
   <energy>
    <i name="e_fr_energy">   -827.32642787 </i>
    <i name="e_wo_entrp">   -827.22847318 </i>
    <i name="e_0_energy">   -827.27745052 </i>
   </energy>
  </scstep>
  <scstep>
   <time name="diag">   12.59   15.26</time>
   <time name="diis">  182.24  185.28</time>
   <time name="orth">    2.92    4.50</time>
   <time name="total">  200.17  207.83</time>
   <energy>
    <i name="e_fr_energy">   -827.63627595 </i>
    <i name="e_wo_entrp">   -827.53803339 </i>
    <i name="e_0_energy">   -827.58715467 </i>
   </energy>
  </scstep>
  <scstep>
   <time name="diag">   12.64   15.31</time>
   <time name="diis">  179.31  182.30</time>
   <time name="orth">    2.91    4.49</time>
   <time name="total">  197.28  204.89</time>
   <energy>
    <i name="e_fr_energy">   -827.86134493 </i>
    <i name="e_wo_entrp">   -827.76287097 </i>
    <i name="e_0_energy">   -827.81210795 </i>
   </energy>
  </scstep>
  <scstep>
   <time name="diag">   12.58   15.23</time>
   <time name="diis">  174.82  177.76</time>
   <time name="orth">    2.96    4.54</time>
   <time name="total">  192.77  200.32</time>
   <energy>
    <i name="e_fr_energy">   -828.12309597 </i>
    <i name="e_wo_entrp">   -828.02436312 </i>
    <i name="e_0_energy">   -828.07372955 </i>
   </energy>
  </scstep>
  <scstep>
   <time name="diag">   12.59   15.25</time>
   <time name="diis">  178.20  181.23</time>
   <time name="orth">    2.90    4.47</time>
   <time name="total">  196.10  203.75</time>
   <energy>
    <i name="e_fr_energy">   -828.25161950 </i>
    <i name="e_wo_entrp">   -828.15300114 </i>
    <i name="e_0_energy">   -828.20231032 </i>
   </energy>
  </scstep>
  <scstep>
   <time name="diag">   12.55   15.22</time>
   <time name="diis">  175.92  178.97</time>
   <time name="orth">    2.94    4.52</time>
   <time name="total">  193.82  201.50</time>
   <energy>
    <i name="e_fr_energy">   -828.35671122 </i>
    <i name="e_wo_entrp">   -828.25808140 </i>
    <i name="e_0_energy">   -828.30739631 </i>
   </energy>
  </scstep>
  <scstep>
   <time name="diag">   12.52   15.19</time>
   <time name="diis">  183.01  186.17</time>
   <time name="orth">    2.90    4.47</time>
   <time name="total">  200.85  208.64</time>
   <energy>
    <i name="e_fr_energy">   -828.38654355 </i>
    <i name="e_wo_entrp">   -828.28779150 </i>
    <i name="e_0_energy">   -828.33716753 </i>
   </energy>
  </scstep>
  <scstep>
   <time name="diag">   12.52   15.18</time>
   <time name="diis">  177.61  180.61</time>
   <time name="orth">    2.90    4.47</time>
   <time name="total">  195.45  203.06</time>
   <energy>
    <i name="e_fr_energy">   -828.39288101 </i>
    <i name="e_wo_entrp">   -828.29408902 </i>
    <i name="e_0_energy">   -828.34348501 </i>
   </energy>
  </scstep>
  <scstep>
   <time name="diag">   12.56   15.22</time>
   <time name="diis">  177.62  180.65</time>
   <time name="orth">    2.89    4.46</time>
   <time name="total">  195.49  203.14</time>
   <energy>
    <i name="e_fr_energy">   -828.39634132 </i>
    <i name="e_wo_entrp">   -828.29752017 </i>
    <i name="e_0_energy">   -828.34693075 </i>
   </energy>
  </scstep>
  <scstep>
   <time name="diag">   12.57   15.23</time>
   <time name="diis">  170.18  173.09</time>
   <time name="orth">    2.90    4.47</time>
   <time name="total">  188.07  195.60</time>
   <energy>
    <i name="e_fr_energy">   -828.39699023 </i>
    <i name="e_wo_entrp">   -828.29819641 </i>
    <i name="e_0_energy">   -828.34759332 </i>
   </energy>
  </scstep>
  <scstep>
   <time name="diag">   12.55   15.21</time>
   <time name="diis">  156.57  159.24</time>
   <time name="orth">    2.93    4.50</time>
   <time name="total">  174.48  181.78</time>
   <energy>
    <i name="e_fr_energy">   -828.39723619 </i>
    <i name="e_wo_entrp">   -828.29848184 </i>
    <i name="e_0_energy">   -828.34785902 </i>
   </energy>
  </scstep>
  <scstep>
   <time name="diag">   12.56   15.20</time>
   <time name="diis">  149.53  152.10</time>
   <time name="orth">    2.92    4.50</time>
   <time name="total">  167.44  174.62</time>
   <energy>
    <i name="e_fr_energy">   -828.39746621 </i>
    <i name="e_wo_entrp">   -828.29871848 </i>
    <i name="e_0_energy">   -828.34809235 </i>
   </energy>
  </scstep>
  <scstep>
   <time name="diag">   12.56   15.22</time>
   <time name="diis">  142.97  145.42</time>
   <time name="orth">    2.89    4.46</time>
   <time name="total">  160.84  167.91</time>
   <energy>
    <i name="e_fr_energy">   -828.39772977 </i>
    <i name="e_wo_entrp">   -828.29897872 </i>
    <i name="e_0_energy">   -828.34835425 </i>
   </energy>
  </scstep>
  <scstep>
   <time name="diag">   12.55   15.20</time>
   <time name="diis">  133.13  135.39</time>
   <time name="orth">    2.93    4.50</time>
   <time name="total">  151.03  157.90</time>
   <energy>
    <i name="e_fr_energy">   -828.39814523 </i>
    <i name="e_wo_entrp">   -828.29938725 </i>
    <i name="e_0_energy">   -828.34876624 </i>
   </energy>
  </scstep>
  <scstep>
   <time name="diag">   12.58   15.22</time>
   <time name="diis">  115.01  116.95</time>
   <time name="orth">    2.89    4.46</time>
   <time name="total">  132.90  139.45</time>
   <energy>
    <i name="e_fr_energy">   -828.39834331 </i>
    <i name="e_wo_entrp">   -828.29958921 </i>
    <i name="e_0_energy">   -828.34896626 </i>
   </energy>
  </scstep>
  <scstep>
   <time name="diag">   12.62   15.27</time>
   <time name="diis">  110.04  111.90</time>
   <time name="orth">    2.89    4.46</time>
   <time name="total">  127.97  134.45</time>
   <energy>
    <i name="e_fr_energy">   -828.39854957 </i>
    <i name="e_wo_entrp">   -828.29979963 </i>
    <i name="e_0_energy">   -828.34917460 </i>
   </energy>
  </scstep>
  <scstep>
   <time name="diag">   12.65   15.31</time>
   <time name="diis">  104.64  106.40</time>
   <time name="orth">    2.89    4.46</time>
   <time name="total">  122.64  129.03</time>
   <energy>
    <i name="e_fr_energy">   -828.39872640 </i>
    <i name="e_wo_entrp">   -828.29997683 </i>
    <i name="e_0_energy">   -828.34935162 </i>
   </energy>
  </scstep>
  <scstep>
   <time name="diag">   12.68   15.33</time>
   <time name="diis">  110.00  111.88</time>
   <time name="orth">    2.89    4.48</time>
   <time name="total">  128.02  134.52</time>
   <energy>
    <i name="e_fr_energy">   -828.39899233 </i>
    <i name="e_wo_entrp">   -828.30023439 </i>
    <i name="e_0_energy">   -828.34961336 </i>
   </energy>
  </scstep>
  <scstep>
   <time name="diag">   12.59   15.22</time>
   <time name="diis">  108.08  109.93</time>
   <time name="orth">    2.94    4.51</time>
   <time name="total">  126.05  132.50</time>
   <energy>
    <i name="e_fr_energy">   -828.39913636 </i>
    <i name="e_wo_entrp">   -828.30037738 </i>
    <i name="e_0_energy">   -828.34975687 </i>
   </energy>
  </scstep>
  <scstep>
   <time name="diag">   12.63   15.29</time>
   <time name="diis">  104.42  106.20</time>
   <time name="orth">    2.89    4.46</time>
   <time name="total">  122.40  128.79</time>
   <energy>
    <i name="e_fr_energy">   -828.39921509 </i>
    <i name="e_wo_entrp">   -828.30045550 </i>
    <i name="e_0_energy">   -828.34983529 </i>
   </energy>
  </scstep>
  <scstep>
   <time name="diag">   12.59   15.24</time>
   <time name="diis">  104.06  105.83</time>
   <time name="orth">    2.93    4.51</time>
   <time name="total">  122.03  128.42</time>
   <energy>
    <i name="e_fr_energy">   -828.39926173 </i>
    <i name="e_wo_entrp">   -828.30050115 </i>
    <i name="e_0_energy">   -828.34988144 </i>
   </energy>
  </scstep>
  <scstep>
   <time name="diag">   12.55   15.20</time>
   <time name="diis">  103.14  104.86</time>
   <time name="orth">    2.90    4.47</time>
   <time name="total">  121.02  127.34</time>
   <energy>
    <i name="e_fr_energy">   -828.39929168 </i>
    <i name="e_wo_entrp">   -828.30053058 </i>
    <i name="e_0_energy">   -828.34991113 </i>
   </energy>
  </scstep>
  <scstep>
   <time name="diag">   12.54   15.19</time>
   <time name="diis">  102.38  104.11</time>
   <time name="orth">    2.93    4.50</time>
   <time name="total">  120.28  126.61</time>
   <energy>
    <i name="e_fr_energy">   -828.39930824 </i>
    <i name="e_wo_entrp">   -828.30054751 </i>
    <i name="e_0_energy">   -828.34992788 </i>
   </energy>
  </scstep>
  <scstep>
   <time name="diag">   12.60   15.26</time>
   <time name="diis">  100.61  102.30</time>
   <time name="orth">    2.90    4.47</time>
   <time name="total">  118.54  124.86</time>
   <energy>
    <i name="e_fr_energy">   -828.39931346 </i>
    <i name="e_wo_entrp">   -828.30055285 </i>
    <i name="e_0_energy">   -828.34993315 </i>
   </energy>
  </scstep>
  <scstep>
   <time name="diag">   12.56   15.21</time>
   <time name="diis">   99.83  101.50</time>
   <time name="orth">    2.93    4.50</time>
   <time name="total">  117.75  124.04</time>
   <energy>
    <i name="e_fr_energy">   -828.39931602 </i>
    <i name="e_wo_entrp">   -828.30055588 </i>
    <i name="e_0_energy">   -828.34993595 </i>
   </energy>
  </scstep>
  <scstep>
   <time name="diag">   12.61   15.27</time>
   <time name="diis">   98.92  100.59</time>
   <time name="orth">    2.89    4.47</time>
   <time name="total">  116.86  123.15</time>
   <energy>
    <i name="e_fr_energy">   -828.39931738 </i>
    <i name="e_wo_entrp">   -828.30055739 </i>
    <i name="e_0_energy">   -828.34993739 </i>
   </energy>
  </scstep>
  <scstep>
   <time name="diag">   12.56   15.21</time>
   <time name="diis">   97.49   99.11</time>
   <time name="orth">    2.94    4.52</time>
   <time name="total">  113.29  119.44</time>
   <energy>
    <i name="alphaZ">    315.09161757 </i>
    <i name="ewald"> 108203.64041902 </i>
    <i name="hartreedc">-163055.29608446 </i>
    <i name="XCdc">   2669.70346354 </i>
    <i name="pawpsdc">  98667.90456598 </i>
    <i name="pawaedc">-101424.27097331 </i>
    <i name="eentropy">     -0.09876004 </i>
    <i name="bandstr">  -8348.22097352 </i>
    <i name="atom">  62143.14740716 </i>
    <i name="e_fr_energy">   -828.39931806 </i>
    <i name="e_wo_entrp">   -828.30055802 </i>
    <i name="e_0_energy">   -828.34993804 </i>
   </energy>
  </scstep>
  <structure>
   <crystal>
    <varray name="basis" >
     <v>      26.26650047       0.00000000       0.00000000 </v>
     <v>     -13.13288029      22.74974710       0.00000000 </v>
     <v>       0.00000000       0.00000000      20.20179939 </v>
    </varray>
    <i name="volume">  12071.71134534 </i>
    <varray name="rec_basis" >
     <v>       0.03807131       0.02197765       0.00000000 </v>
     <v>       0.00000000       0.04395653       0.00000000 </v>
     <v>       0.00000000       0.00000000       0.04950054 </v>
    </varray>
   </crystal>
   <varray name="positions" >
    <v>       0.02969555       0.30220391       0.50015238 </v>
    <v>       0.02981443       0.06202868       0.50016441 </v>
    <v>       0.27004115       0.30216559       0.49990992 </v>
    <v>       0.06087769       0.03095080       0.50028749 </v>
    <v>       0.30111063       0.27105907       0.50062393 </v>
    <v>       0.30123018       0.03112363       0.50063493 </v>
    <v>       0.36328104       0.30210390       0.50132839 </v>
    <v>       0.36339285       0.06221966       0.50176641 </v>
    <v>       0.60313202       0.30193842       0.50777963 </v>
    <v>       0.39441628       0.03110717       0.50165707 </v>
    <v>       0.63436527       0.27088739       0.50989239 </v>
    <v>       0.63436617       0.03116723       0.50077092 </v>
    <v>       0.69654115       0.30206733       0.50634686 </v>
    <v>       0.69644495       0.06221444       0.50093878 </v>
    <v>       0.93647647       0.30216643       0.50139538 </v>
    <v>       0.72752587       0.03112669       0.50037064 </v>
    <v>       0.96754091       0.27110165       0.50071093 </v>
    <v>       0.96765088       0.03094371       0.50029435 </v>
    <v>       0.02972816       0.63533678       0.49999301 </v>
    <v>       0.02962348       0.39529673       0.50042590 </v>
    <v>       0.26990204       0.63545515       0.50032798 </v>
    <v>       0.06067661       0.36420968       0.50007275 </v>
    <v>       0.30098857       0.60436168       0.50018750 </v>
    <v>       0.30110697       0.36426916       0.49987407 </v>
    <v>       0.36315320       0.63545862       0.50034328 </v>
    <v>       0.36328510       0.39535196       0.50036748 </v>
    <v>       0.60323888       0.63529658       0.50047799 </v>
    <v>       0.39439547       0.36429936       0.50117598 </v>
    <v>       0.63428912       0.60415951       0.50193467 </v>
    <v>       0.63427304       0.36425494       0.50909793 </v>
    <v>       0.69656489       0.63529759       0.50213928 </v>
    <v>       0.69660429       0.39546048       0.50825635 </v>
    <v>       0.93646021       0.63528991       0.50080811 </v>
    <v>       0.72768538       0.36434598       0.50763775 </v>
    <v>       0.96756801       0.60423435       0.50069236 </v>
    <v>       0.96748790       0.36421456       0.50121885 </v>
    <v>       0.02982685       0.96883304       0.50021211 </v>
    <v>       0.02971784       0.72855599       0.50000658 </v>
    <v>       0.27014639       0.96899513       0.50002193 </v>
    <v>       0.06080764       0.69752158       0.50002838 </v>
    <v>       0.30115464       0.93793462       0.49983936 </v>
    <v>       0.30098722       0.69761695       0.50018229 </v>
    <v>       0.36333722       0.96901212       0.50021782 </v>
    <v>       0.36314741       0.72870658       0.50023695 </v>
    <v>       0.60330140       0.96904037       0.50008639 </v>
    <v>       0.39425200       0.69760866       0.50021826 </v>
    <v>       0.63439688       0.93796574       0.49998925 </v>
    <v>       0.63432936       0.69748732       0.49995068 </v>
    <v>       0.69642713       0.96897258       0.50015784 </v>
    <v>       0.69647380       0.72856425       0.49987315 </v>
    <v>       0.93659782       0.96881968       0.50016267 </v>
    <v>       0.72760542       0.69750112       0.50063359 </v>
    <v>       0.96766536       0.93775207       0.50019217 </v>
    <v>       0.96756303       0.69747709       0.50030720 </v>
    <v>       0.65617294       0.33468285       0.70935222 </v>
    <v>       0.06783566       0.13813144       0.49963894 </v>
    <v>       0.19389445       0.26411460       0.49957369 </v>
    <v>       0.13699486       0.06903694       0.50061523 </v>
    <v>       0.26300051       0.19498776       0.50113653 </v>
    <v>       0.26314580       0.06916195       0.50033367 </v>
    <v>       0.40142371       0.26417726       0.50251930 </v>
    <v>       0.40163985       0.13834154       0.50342559 </v>
    <v>       0.52776954       0.26422459       0.50142805 </v>
    <v>       0.47057567       0.06925417       0.50349804 </v>
    <v>       0.59691052       0.19576886       0.51940313 </v>
    <v>       0.59633389       0.06933419       0.50129914 </v>
    <v>       0.73412515       0.26434310       0.49811475 </v>
    <v>       0.73439039       0.13837007       0.50185622 </v>
    <v>       0.86031079       0.26412962       0.50275129 </v>
    <v>       0.80364587       0.06913348       0.50008462 </v>
    <v>       0.92952870       0.19495780       0.50105553 </v>
    <v>       0.92960875       0.06900651       0.50069643 </v>
    <v>       0.06781766       0.59735392       0.49887410 </v>
    <v>       0.06771945       0.47142986       0.50005873 </v>
    <v>       0.19384161       0.59742150       0.50106076 </v>
    <v>       0.13690753       0.40235423       0.49983130 </v>
    <v>       0.26291093       0.52828669       0.49981762 </v>
    <v>       0.26301968       0.40232827       0.49959297 </v>
    <v>       0.40116993       0.59740444       0.50106430 </v>
    <v>       0.40127614       0.47142953       0.50019184 </v>
    <v>       0.52720746       0.59730608       0.49930061 </v>
    <v>       0.47049658       0.40221478       0.50210431 </v>
    <v>       0.59639210       0.52815775       0.50362098 </v>
    <v>       0.59643927       0.40183521       0.51387534 </v>
    <v>       0.73441888       0.59718337       0.50459892 </v>
    <v>       0.73435760       0.47102679       0.50682401 </v>
    <v>       0.86038608       0.59715675       0.50149790 </v>
    <v>       0.80328228       0.40211188       0.51038994 </v>
    <v>       0.92944879       0.52814984       0.50136587 </v>
    <v>       0.92932702       0.40224185       0.50215338 </v>
    <v>       0.06787358       0.93076035       0.49996285 </v>
    <v>       0.06776983       0.80469877       0.49996816 </v>
    <v>       0.19394392       0.93090003       0.49996207 </v>
    <v>       0.13693905       0.73561103       0.50052704 </v>
    <v>       0.26305113       0.86175600       0.49939687 </v>
    <v>       0.26294713       0.73565525       0.49990779 </v>
    <v>       0.40133344       0.93089351       0.49879775 </v>
    <v>       0.40116553       0.80477168       0.50054698 </v>
    <v>       0.52717364       0.93094010       0.49931227 </v>
    <v>       0.47033193       0.73567091       0.50005016 </v>
    <v>       0.59625438       0.86176445       0.49990342 </v>
    <v>       0.59627345       0.73553781       0.49971322 </v>
    <v>       0.73452835       0.93085924       0.50066675 </v>
    <v>       0.73448233       0.80467337       0.49922163 </v>
    <v>       0.86047289       0.93075725       0.49973847 </v>
    <v>       0.80362618       0.73555632       0.50001647 </v>
    <v>       0.92960557       0.86165255       0.50012029 </v>
    <v>       0.92955677       0.73555023       0.50037396 </v>
    <v>       0.06777521       0.26407169       0.50004159 </v>
    <v>       0.72257547       0.31746515       0.66858204 </v>
    <v>       0.67039286       0.41845400       0.67275208 </v>
    <v>       0.57158588       0.26717699       0.67198763 </v>
    <v>       0.66063634       0.33622676       0.81480956 </v>
    <v>       0.49905297       0.33310999       0.50628654 </v>
    <v>       0.99867170       0.16653257       0.50032599 </v>
    <v>       0.83196746       0.16662930       0.50214358 </v>
    <v>       0.83169408       0.33307294       0.50441581 </v>
    <v>       0.33209211       0.49989315       0.50051704 </v>
    <v>       0.16531554       0.49990988       0.50040690 </v>
    <v>       0.16538003       0.66647072       0.50050870 </v>
    <v>       0.66524960       0.49940820       0.50811930 </v>
    <v>       0.49882678       0.49976751       0.50260336 </v>
    <v>       0.49868402       0.66642322       0.50048583 </v>
    <v>       0.99861511       0.49980766       0.50167616 </v>
    <v>       0.83185478       0.49956293       0.50537788 </v>
    <v>       0.83201514       0.66636664       0.50256449 </v>
    <v>       0.33210275       0.83325656       0.50046713 </v>
    <v>       0.16539528       0.83325182       0.50035008 </v>
    <v>       0.16546522       0.99998431       0.50042407 </v>
    <v>       0.66535702       0.83322143       0.50024483 </v>
    <v>       0.49868362       0.83327890       0.50062489 </v>
    <v>       0.49887085       0.00011264       0.50202609 </v>
    <v>       0.99864159       0.83316365       0.50057880 </v>
    <v>       0.83205625       0.83317253       0.50035345 </v>
    <v>       0.83208087       0.99994220       0.50042452 </v>
    <v>       0.33228559       0.16664223       0.50286900 </v>
    <v>       0.16537593       0.16655506       0.50039428 </v>
    <v>       0.16536415       0.33320599       0.50000146 </v>
    <v>       0.66516803       0.16679203       0.50560594 </v>
    <v>       0.49938219       0.16675436       0.50805675 </v>
   </varray>
  </structure>
  <varray name="forces" >
   <v>       0.02064747      -0.11537824       0.00610299 </v>
   <v>      -0.01508134      -0.01003168       0.00030127 </v>
   <v>       0.01845089      -0.04090443       0.00565982 </v>
   <v>       0.00242836       0.02099162       0.00001350 </v>
   <v>      -0.01884531       0.01630470       0.00797150 </v>
   <v>      -0.02096203       0.02215331       0.00760693 </v>
   <v>       0.00427182       0.03826283       0.00533949 </v>
   <v>       0.01667425       0.01974325       0.00771476 </v>
   <v>       0.04584861       0.03880364      -0.00114171 </v>
   <v>       0.01392269       0.04806028       0.00577617 </v>
   <v>      -0.04195677       0.03493433       0.00044573 </v>
   <v>      -0.04446543       0.01468776       0.00167669 </v>
   <v>       0.01022609      -0.02532663       0.00295661 </v>
   <v>       0.01513305       0.03832433       0.00447145 </v>
   <v>      -0.05163100      -0.06677090       0.00589529 </v>
   <v>       0.01337683       0.00241823       0.00481076 </v>
   <v>       0.03072433      -0.03192424       0.00817746 </v>
   <v>       0.01394890       0.01953853      -0.00008137 </v>
   <v>      -0.01245594       0.03203687       0.00128751 </v>
   <v>       0.00431682       0.02615653       0.00444854 </v>
   <v>       0.04654063       0.01465167       0.00263056 </v>
   <v>       0.04925397       0.11252521       0.00453708 </v>
   <v>      -0.01705391       0.04277754       0.00274963 </v>
   <v>       0.00936533       0.03667790       0.00442287 </v>
   <v>      -0.02470742       0.00769120       0.00248197 </v>
   <v>      -0.00733355      -0.01212374       0.00452740 </v>
   <v>       0.04652244       0.02268543       0.00514532 </v>
   <v>       0.00270393      -0.03755627       0.00359651 </v>
   <v>       0.05226106       0.08704304       0.00406017 </v>
   <v>       0.02916871      -0.03313756       0.00336662 </v>
   <v>      -0.10409808       0.00191311       0.00543270 </v>
   <v>      -0.03208972      -0.05063080       0.00391406 </v>
   <v>       0.00566814       0.01171917       0.00336360 </v>
   <v>      -0.01044155       0.01790556       0.00567967 </v>
   <v>      -0.00240639       0.00722480       0.00100594 </v>
   <v>      -0.04744403       0.07659204       0.00298389 </v>
   <v>      -0.00648328      -0.02697132       0.00029015 </v>
   <v>      -0.02908670       0.00958947       0.00437812 </v>
   <v>      -0.05815353      -0.00317545       0.00551433 </v>
   <v>       0.01757775      -0.03978571       0.00365279 </v>
   <v>       0.04975976      -0.03910527       0.00304619 </v>
   <v>       0.02684751      -0.01777902       0.00248014 </v>
   <v>       0.00614218      -0.04119423       0.00237339 </v>
   <v>       0.02343101      -0.04894870       0.00167347 </v>
   <v>      -0.01003171      -0.02083554       0.00191481 </v>
   <v>      -0.05402288       0.00605920       0.00271051 </v>
   <v>      -0.06555252      -0.06375424       0.00315269 </v>
   <v>       0.00720340      -0.04055526       0.00571000 </v>
   <v>       0.08665283       0.02240034       0.00467384 </v>
   <v>       0.03552339      -0.02346895       0.00566746 </v>
   <v>      -0.00975963      -0.01292081       0.00012940 </v>
   <v>      -0.05369268      -0.03785339       0.00809925 </v>
   <v>       0.01260675       0.00585559      -0.00125449 </v>
   <v>       0.01720393      -0.00950059       0.00587357 </v>
   <v>      -0.00253600       0.01377927      -0.03534247 </v>
   <v>       0.00257698      -0.00112266       0.00104458 </v>
   <v>       0.01177254       0.00907571      -0.00463534 </v>
   <v>       0.00153562      -0.00120455      -0.00194857 </v>
   <v>       0.00696530      -0.01005287       0.01039591 </v>
   <v>       0.01133389      -0.00060335       0.00408073 </v>
   <v>       0.00301089      -0.00456301       0.00292701 </v>
   <v>      -0.00135068      -0.01711787       0.00930313 </v>
   <v>      -0.01352616      -0.01041174      -0.05925754 </v>
   <v>      -0.01172300      -0.00657110      -0.00030212 </v>
   <v>       0.00506848      -0.02011097       0.00726735 </v>
   <v>       0.01498595      -0.00702177      -0.00776239 </v>
   <v>      -0.01310192       0.00567638      -0.03181690 </v>
   <v>      -0.00208961      -0.01891333       0.00634830 </v>
   <v>       0.02574311       0.01647205       0.00034412 </v>
[...]
    <v>       0.93632085       0.63531705       0.50266855 </v>
    <v>       0.72741499       0.36421352       0.50374079 </v>
    <v>       0.96731387       0.60417336       0.50081728 </v>
    <v>       0.96721171       0.36412424       0.50198921 </v>
    <v>       0.02982326       0.96882349       0.50014390 </v>
    <v>       0.02962257       0.72857618       0.50057318 </v>
    <v>       0.27051553       0.96941569       0.50132453 </v>
    <v>       0.06065029       0.69747983       0.50021797 </v>
    <v>       0.30159046       0.93842065       0.49959294 </v>
    <v>       0.30102235       0.69773195       0.50166311 </v>
    <v>       0.36374927       0.96959310       0.50003456 </v>
    <v>       0.36323800       0.72885429       0.50118064 </v>
    <v>       0.60335778       0.96943095       0.49922506 </v>
    <v>       0.39430401       0.69770133       0.50184425 </v>
    <v>       0.63440014       0.93829734       0.49988038 </v>
    <v>       0.63429699       0.69734772       0.50052108 </v>
    <v>       0.69642715       0.96924705       0.50106790 </v>
    <v>       0.69637990       0.72833253       0.50050700 </v>
    <v>       0.93653858       0.96881995       0.49995358 </v>
    <v>       0.72739801       0.69721569       0.50308661 </v>
    <v>       0.96764940       0.93771038       0.49905911 </v>
    <v>       0.96747352       0.69748932       0.50235261 </v>
    <v>       0.65663018       0.33466256       0.70105878 </v>
    <v>       0.06788655       0.13815440       0.50040865 </v>
    <v>       0.19420168       0.26420321       0.49809014 </v>
    <v>       0.13705195       0.06907239       0.49889600 </v>
    <v>       0.26315296       0.19498252       0.50854334 </v>
    <v>       0.26358891       0.06955184       0.50370257 </v>
    <v>       0.40145279       0.26379512       0.50668275 </v>
    <v>       0.40194353       0.13853110       0.51436981 </v>
    <v>       0.52889848       0.26393432       0.48383463 </v>
    <v>       0.47104244       0.07005068       0.50475072 </v>
    <v>       0.59763583       0.19724032       0.52612358 </v>
    <v>       0.59658970       0.06996848       0.49822295 </v>
    <v>       0.73334436       0.26428491       0.48896346 </v>
    <v>       0.73422802       0.13853263       0.50999920 </v>
    <v>       0.86021431       0.26411807       0.50754229 </v>
    <v>       0.80358089       0.06950805       0.50192530 </v>
    <v>       0.92953957       0.19514168       0.50883781 </v>
    <v>       0.92956839       0.06901066       0.49898871 </v>
    <v>       0.06746001       0.59741595       0.49364303 </v>
    <v>       0.06736522       0.47123652       0.49983900 </v>
    <v>       0.19379891       0.59753784       0.50392435 </v>
    <v>       0.13669722       0.40229516       0.49927594 </v>
    <v>       0.26295613       0.52829860       0.50134535 </v>
    <v>       0.26337731       0.40223824       0.49783847 </v>
    <v>       0.40122932       0.59745539       0.50234342 </v>
    <v>       0.40169761       0.47107746       0.49986543 </v>
    <v>       0.52738709       0.59719070       0.49471864 </v>
    <v>       0.47086870       0.40156410       0.50133650 </v>
    <v>       0.59619253       0.52780966       0.50604032 </v>
    <v>       0.59585879       0.40038958       0.51786731 </v>
    <v>       0.73407907       0.59686827       0.51304189 </v>
    <v>       0.73337675       0.47021784       0.49343753 </v>
    <v>       0.86019396       0.59721110       0.50506395 </v>
    <v>       0.80266001       0.40186086       0.51105820 </v>
    <v>       0.92904957       0.52800482       0.50097699 </v>
    <v>       0.92878226       0.40190812       0.50002798 </v>
    <v>       0.06788416       0.93076043       0.50219995 </v>
    <v>       0.06776709       0.80461936       0.49820329 </v>
    <v>       0.19437703       0.93125930       0.50072874 </v>
    <v>       0.13674691       0.73560811       0.50169660 </v>
    <v>       0.26352265       0.86235858       0.49574782 </v>
    <v>       0.26294049       0.73579265       0.50204493 </v>
    <v>       0.40185606       0.93179409       0.49476886 </v>
    <v>       0.40130569       0.80496664       0.50008889 </v>
    <v>       0.52737645       0.93158528       0.49545428 </v>
    <v>       0.47041491       0.73577610       0.50327078 </v>
    <v>       0.59636047       0.86217611       0.49833446 </v>
    <v>       0.59631734       0.73542488       0.50020336 </v>
    <v>       0.73437813       0.93104190       0.50149524 </v>
    <v>       0.73435080       0.80435885       0.49658764 </v>
    <v>       0.86041193       0.93075195       0.50150169 </v>
    <v>       0.80340294       0.73517157       0.50277489 </v>
    <v>       0.92963745       0.86166190       0.49561134 </v>
    <v>       0.92947465       0.73548920       0.50488310 </v>
    <v>       0.06769210       0.26424271       0.49928430 </v>
    <v>       0.72172655       0.31444903       0.66243459 </v>
    <v>       0.67925917       0.42164667       0.66658390 </v>
    <v>       0.57178204       0.27229479       0.65872721 </v>
    <v>       0.65294322       0.32917400       0.80575287 </v>
    <v>       0.49843971       0.33135086       0.50311155 </v>
    <v>       0.99870258       0.16667923       0.50146617 </v>
    <v>       0.83183750       0.16684435       0.50586401 </v>
    <v>       0.83110097       0.33225155       0.50333170 </v>
    <v>       0.33245723       0.49980138       0.50003741 </v>
    <v>       0.16515766       0.49998009       0.50027295 </v>
    <v>       0.16511901       0.66640721       0.49990924 </v>
    <v>       0.66483072       0.49895914       0.50896091 </v>
    <v>       0.49887895       0.49952558       0.50183120 </v>
    <v>       0.49874488       0.66635150       0.49989407 </v>
    <v>       0.99852664       0.49975633       0.49991936 </v>
    <v>       0.83140780       0.49979342       0.50419593 </v>
    <v>       0.83169229       0.66617662       0.50608262 </v>
    <v>       0.33236458       0.83367716       0.49879060 </v>
    <v>       0.16563030       0.83338192       0.49935414 </v>
    <v>       0.16566606       0.00007622       0.50112893 </v>
    <v>       0.66525566       0.83314126       0.49951158 </v>
    <v>       0.49893373       0.83368117       0.49971022 </v>
    <v>       0.49918059       0.00089594       0.50093248 </v>
    <v>       0.99859722       0.83301285       0.50077068 </v>
    <v>       0.83199522       0.83294171       0.49999943 </v>
    <v>       0.83191848       0.00005431       0.50120944 </v>
    <v>       0.33275263       0.16668274       0.50689345 </v>
    <v>       0.16560640       0.16672351       0.50113614 </v>
    <v>       0.16548375       0.33328931       0.49871498 </v>
    <v>       0.66495792       0.16681027       0.50700096 </v>
    <v>       0.49947394       0.16741984       0.50845237 </v>
   </varray>
  </structure>
  <varray name="forces" >
   <v>       0.00283944      -0.05978977       0.00042991 </v>
   <v>       0.04395536      -0.02125486      -0.00498397 </v>
   <v>       0.00998047      -0.06112224      -0.00323882 </v>
   <v>      -0.03467248       0.04963371      -0.00549252 </v>
   <v>       0.04266142       0.03116554       0.00264229 </v>
   <v>      -0.02476603       0.04382302       0.01029312 </v>
   <v>       0.00162589      -0.04700372       0.00516400 </v>
   <v>       0.04783140       0.02686132       0.01598701 </v>
   <v>      -0.02972552      -0.05276742       0.00196947 </v>
   <v>      -0.01118263       0.06207816      -0.00581371 </v>
   <v>       0.03704226       0.02687120      -0.02923518 </v>
   <v>      -0.04269714       0.01430449      -0.00778104 </v>
   <v>       0.01051974       0.00551322      -0.01754719 </v>
   <v>      -0.00265405       0.06257762       0.01654437 </v>
   <v>      -0.04460285      -0.05438849       0.00839103 </v>
   <v>       0.00535648       0.02322588       0.00640332 </v>
   <v>      -0.01318054      -0.00732015       0.00399083 </v>
   <v>      -0.01112165       0.03875246      -0.00410897 </v>
   <v>      -0.01132765      -0.05191442      -0.00354208 </v>
   <v>      -0.03182021       0.00867257      -0.00583140 </v>
   <v>       0.04022236      -0.01823256       0.00439356 </v>
   <v>       0.01924280       0.06198809      -0.00401417 </v>
   <v>      -0.01592822       0.02996179       0.00394829 </v>
   <v>       0.02339819       0.05475367      -0.00562770 </v>
   <v>      -0.02254938      -0.01432702       0.00191759 </v>
   <v>       0.00499915      -0.02727081      -0.00709125 </v>
   <v>       0.02692451       0.00667170      -0.00275339 </v>
   <v>       0.01847200       0.04112139      -0.00794027 </v>
   <v>       0.01614680      -0.02446355       0.00007834 </v>
   <v>      -0.06149248       0.05431839      -0.00905126 </v>
   <v>       0.01340534       0.00544414       0.00505665 </v>
   <v>       0.04372693       0.01759584      -0.00972542 </v>
   <v>       0.00188356      -0.04310204       0.00290894 </v>
   <v>      -0.01286942      -0.01167073      -0.01397113 </v>
   <v>      -0.01511060      -0.00557631      -0.00167647 </v>
   <v>      -0.03441718       0.06397595      -0.00242819 </v>
   <v>       0.01229859      -0.04204814      -0.00412066 </v>
   <v>       0.00368638      -0.01679385      -0.00443107 </v>
   <v>       0.01857908      -0.04235228      -0.00920522 </v>
   <v>      -0.01665596       0.02171728      -0.00642406 </v>
   <v>      -0.05171988      -0.01372209      -0.00583498 </v>
   <v>       0.00860232       0.01185903       0.00268304 </v>
   <v>       0.05846815       0.00203584      -0.00837931 </v>
   <v>       0.00336518      -0.03931512       0.00392599 </v>
   <v>      -0.03057396       0.02724283      -0.01094693 </v>
   <v>      -0.03039708       0.02479677       0.00448054 </v>
   <v>      -0.01040786      -0.03836854      -0.00950976 </v>
   <v>       0.01097992      -0.05006414      -0.00834692 </v>
   <v>       0.03686214       0.00922675      -0.00837199 </v>
   <v>       0.01088191      -0.00156071      -0.00444855 </v>
   <v>       0.02966723      -0.06157161      -0.00553733 </v>
   <v>       0.00561679      -0.05623441       0.00597860 </v>
   <v>      -0.03000744       0.02797757      -0.00453198 </v>
   <v>      -0.01497503      -0.00737566       0.00201016 </v>
   <v>       0.03403725      -0.00820932      -0.16996082 </v>
   <v>      -0.00808746       0.00908464       0.00245022 </v>
   <v>      -0.02559924      -0.02076216       0.00191074 </v>
   <v>      -0.00108084      -0.00814536      -0.00361075 </v>
   <v>      -0.01379073      -0.02382951       0.01385936 </v>
   <v>      -0.02577393      -0.00306174       0.01637494 </v>
   <v>      -0.00059068      -0.00483337       0.00977928 </v>
   <v>      -0.02131710      -0.00719658       0.03794062 </v>
   <v>      -0.10720015      -0.02764823       0.05037160 </v>
   <v>       0.00956004      -0.00222755      -0.03219550 </v>
   <v>      -0.00751597      -0.12894163      -0.06297112 </v>
   <v>      -0.00167779      -0.01541436      -0.00998748 </v>
   <v>       0.10036488      -0.03220845       0.00482358 </v>
   <v>       0.01170328      -0.01123735       0.03051561 </v>
   <v>       0.00763182      -0.00279090       0.01024570 </v>
   <v>       0.01951056      -0.01240759       0.00920134 </v>
   <v>       0.02243019      -0.02482135       0.01541502 </v>
   <v>      -0.00532845       0.00642949       0.00003456 </v>
   <v>       0.03888780      -0.01048913      -0.00636154 </v>
   <v>       0.01563960       0.02700891      -0.01042664 </v>
   <v>       0.01077697       0.00041111       0.00654263 </v>
   <v>       0.02698432       0.01805191       0.00103572 </v>
   <v>      -0.00279173      -0.01086587       0.00593641 </v>
   <v>      -0.02805857       0.01856975      -0.00252529 </v>
   <v>       0.00872791       0.00033841      -0.00093700 </v>
   <v>      -0.01878683       0.03244448      -0.00206907 </v>
   <v>      -0.04723663      -0.01026628      -0.00551698 </v>
   <v>      -0.01187787       0.01934215      -0.01804737 </v>
   <v>      -0.00937288       0.00633273      -0.00207426 </v>
   <v>      -0.03455328       0.02980420      -0.05113999 </v>
   <v>       0.00035349       0.01120472       0.01489188 </v>
   <v>      -0.00693389       0.07431034       0.01035982 </v>
   <v>       0.00184699       0.00810865       0.01291238 </v>
   <v>       0.06560168       0.03852568      -0.02334872 </v>
   <v>       0.01207118       0.00935285      -0.00557070 </v>
   <v>       0.01980963       0.01376596      -0.00238447 </v>
   <v>       0.00595846       0.00417181      -0.00310479 </v>
   <v>      -0.00957428       0.04551038      -0.00230775 </v>
   <v>      -0.02653141      -0.00826310      -0.00396628 </v>
   <v>       0.03741348       0.01295285      -0.00587720 </v>
   <v>       0.00813803      -0.02834108      -0.00271195 </v>
   <v>      -0.01145582       0.01334596       0.00084099 </v>
   <v>       0.02355345      -0.04598578       0.00081656 </v>
   <v>      -0.00845269       0.00178568       0.00069637 </v>
   <v>      -0.01219488      -0.03415434      -0.00591911 </v>
   <v>       0.02157025       0.00903995       0.00998571 </v>
   <v>      -0.00588247      -0.03095657      -0.00144124 </v>
   <v>      -0.04532556       0.02283446      -0.00398931 </v>
   <v>       0.02909561      -0.00946465      -0.00805193 </v>
   <v>       0.00321259       0.05007198      -0.00013182 </v>
   <v>      -0.00486715      -0.00602888      -0.00345931 </v>
   <v>       0.01133803       0.03345166       0.01207215 </v>
   <v>      -0.00348833       0.00631916      -0.00546709 </v>
   <v>      -0.01863876       0.02833707       0.01797816 </v>
   <v>       0.03534601      -0.02380340       0.00025131 </v>
   <v>      -0.01445099      -0.04137382      -0.00756266 </v>
   <v>       0.01766432       0.04511806      -0.01357396 </v>
   <v>      -0.06010921      -0.00266572      -0.01271105 </v>
   <v>      -0.00104970       0.00874727       0.18510004 </v>
   <v>       0.03530236       0.00051261       0.01906483 </v>
   <v>      -0.01097578      -0.01411738       0.01185781 </v>
   <v>      -0.01282246       0.00171303       0.01252051 </v>
   <v>      -0.02592546      -0.00313635       0.02008996 </v>
   <v>      -0.00133121       0.02285023       0.00833274 </v>
   <v>      -0.00992308       0.00807243       0.00601950 </v>
   <v>       0.01612037      -0.01243509       0.00353845 </v>
   <v>       0.01469095      -0.01886657       0.01334703 </v>
   <v>       0.01147146      -0.01337714      -0.01311589 </v>
   <v>      -0.00855625      -0.01678264       0.00405049 </v>
   <v>      -0.01807323       0.00379163      -0.01060350 </v>
   <v>      -0.02735229      -0.02635253      -0.00668793 </v>
   <v>       0.01426404      -0.01748801       0.01098007 </v>
   <v>       0.01794279       0.00512340      -0.00115704 </v>
   <v>      -0.00943998       0.00792488      -0.00107985 </v>
   <v>      -0.00461096       0.01585788       0.01144928 </v>
   <v>       0.00615030       0.01969562      -0.00072478 </v>
   <v>      -0.02363893      -0.00974449      -0.00140164 </v>
   <v>       0.01278510       0.00529383      -0.01521160 </v>
   <v>      -0.01815060       0.01081677       0.00598769 </v>
   <v>       0.01116152      -0.00226186       0.00565375 </v>
   <v>       0.01525167       0.01315656       0.00581238 </v>
   <v>      -0.00093202       0.01761701       0.01192134 </v>
   <v>      -0.00097686      -0.02286647       0.01655678 </v>
   <v>       0.00265546      -0.01139770       0.00686426 </v>
   <v>      -0.00395343       0.03509048       0.00351544 </v>
   <v>       0.01484745       0.00837608       0.01222624 </v>
  </varray>
  <varray name="stress" >
   <v>      -1.41779736       0.02024444      -0.00535336 </v>
   <v>       0.02024443      -1.44824117       0.00003255 </v>
   <v>      -0.00535332       0.00003254      -0.13972060 </v>
  </varray>
  <energy>
   <i name="e_fr_energy">   -837.73042442 </i>
   <i name="e_wo_entrp">   -837.67768377 </i>
   <i name="e_0_energy">     -0.10548132 </i>
  </energy>
  <time name="totalsc"> 4595.93 4792.32</time>
 </calculation>
 <calculation>
  <scstep>
   <time name="dav">  226.95  240.20</time>
   <time name="total">  229.33  242.97</time>
   <energy>
    <i name="alphaZ">    315.09161757 </i>
    <i name="ewald"> 108429.39719818 </i>
    <i name="hartreedc">-163305.53917750 </i>
    <i name="XCdc">   2669.33755663 </i>
    <i name="pawpsdc">  98553.06302203 </i>
    <i name="pawaedc">-101308.77507461 </i>
    <i name="eentropy">     -0.10527888 </i>
    <i name="bandstr">  -8324.00907472 </i>
    <i name="atom">  62143.14740716 </i>
    <i name="e_fr_energy">   -828.39180414 </i>
    <i name="e_wo_entrp">   -828.28652526 </i>
    <i name="e_0_energy">   -828.33916470 </i>
   </energy>
  </scstep>
  <scstep>
   <time name="diag">   12.93   15.62</time>
   <time name="diis">  186.43  189.53</time>
   <time name="orth">    2.91    4.50</time>
   <time name="total">  204.66  212.44</time>
   <energy>
    <i name="e_fr_energy">   -828.40149901 </i>
    <i name="e_wo_entrp">   -828.29616573 </i>
    <i name="e_0_energy">   -828.34883237 </i>
   </energy>
  </scstep>
  <scstep>
   <time name="diag">   12.91   15.60</time>
   <time name="diis">  207.64  211.11</time>
   <time name="orth">    2.91    4.49</time>
   <time name="total">  225.86  233.97</time>
   <energy>
    <i name="e_fr_energy">   -828.40352145 </i>
    <i name="e_wo_entrp">   -828.29846169 </i>
    <i name="e_0_energy">   -828.35099157 </i>
   </energy>
  </scstep>
  <scstep>
   <time name="diag">   12.91   15.59</time>
   <time name="diis">  178.72  181.74</time>
   <time name="orth">    2.92    4.50</time>
   <time name="total">  196.94  204.61</time>
   <energy>
    <i name="e_fr_energy">   -828.40256987 </i>
    <i name="e_wo_entrp">   -828.29734779 </i>
    <i name="e_0_energy">   -828.34995883 </i>
   </energy>
  </scstep>
  <scstep>
   <time name="diag">   12.91   15.59</time>
   <time name="diis">  190.61  193.76</time>
   <time name="orth">    2.92    4.50</time>
   <time name="total">  208.88  216.68</time>
   <energy>
    <i name="e_fr_energy">   -828.40233706 </i>
    <i name="e_wo_entrp">   -828.29701285 </i>
    <i name="e_0_energy">   -828.34967495 </i>
   </energy>
  </scstep>
  <scstep>
   <time name="diag">   12.94   15.62</time>
   <time name="diis">  189.00  192.09</time>
   <time name="orth">    2.90    4.48</time>
   <time name="total">  207.24  214.98</time>
   <energy>
    <i name="e_fr_energy">   -828.40226501 </i>
    <i name="e_wo_entrp">   -828.29706320 </i>
    <i name="e_0_energy">   -828.34966410 </i>
   </energy>
  </scstep>
  <scstep>
   <time name="diag">   12.94   15.62</time>
   <time name="diis">  200.72  204.07</time>
   <time name="orth">    2.90    4.48</time>
   <time name="total">  218.95  226.96</time>
   <energy>
    <i name="e_fr_energy">   -828.40230850 </i>
    <i name="e_wo_entrp">   -828.29703299 </i>
    <i name="e_0_energy">   -828.34967074 </i>
   </energy>
  </scstep>
  <scstep>
   <time name="diag">   12.91   15.59</time>
   <time name="diis">  172.95  175.93</time>
   <time name="orth">    2.90    4.48</time>
   <time name="total">  191.16  198.80</time>
   <energy>
    <i name="e_fr_energy">   -828.40227235 </i>
    <i name="e_wo_entrp">   -828.29699193 </i>
    <i name="e_0_energy">   -828.34963214 </i>
   </energy>
  </scstep>
  <scstep>
   <time name="diag">   12.91   15.60</time>
   <time name="diis">  159.82  162.57</time>
   <time name="orth">    2.91    4.49</time>
   <time name="total">  178.03  185.44</time>
   <energy>
    <i name="e_fr_energy">   -828.40225293 </i>
    <i name="e_wo_entrp">   -828.29690833 </i>
    <i name="e_0_energy">   -828.34958063 </i>
   </energy>
  </scstep>
  <scstep>
   <time name="diag">   12.90   15.58</time>
