       N       E                     dE             d eps       ncg     rms          rms(c)
DAV:   1     0.784074693170E+04    0.78407E+04   -0.27147E+05 12032   0.105E+03
DAV:   2     0.101108201299E+04   -0.68297E+04   -0.58717E+04 14752   0.253E+02
DAV:   3    -0.737660561819E+03   -0.17487E+04   -0.17174E+04 17448   0.144E+02
DAV:   4    -0.903684665503E+03   -0.16602E+03   -0.15988E+03 19280   0.617E+01
DAV:   5    -0.910031587904E+03   -0.63469E+01   -0.59178E+01 20064   0.138E+01    0.126E+02
RMM:   6    -0.864969466848E+03    0.45062E+02   -0.28968E+03 14070   0.116E+02    0.107E+02
RMM:   7    -0.589924832581E+03    0.27504E+03   -0.68082E+02 12151   0.650E+01    0.492E+01
RMM:   8    -0.651228114739E+03   -0.61303E+02   -0.44753E+02 13316   0.418E+01    0.559E+01
RMM:   9    -0.609416219880E+03    0.41812E+02   -0.50229E+01 12883   0.169E+01    0.305E+01
RMM:  10    -0.629408353634E+03   -0.19992E+02   -0.27436E+01 12351   0.129E+01    0.162E+01
RMM:  11    -0.689482663109E+03   -0.60074E+02   -0.35022E+01 12301   0.108E+01    0.147E+01
RMM:  12    -0.725564445943E+03   -0.36082E+02   -0.17816E+01 12813   0.572E+00    0.117E+01
RMM:  13    -0.769304820707E+03   -0.43740E+02   -0.29381E+01 12470   0.722E+00    0.773E+00
RMM:  14    -0.790740191239E+03   -0.21435E+02   -0.13156E+01 12988   0.507E+00    0.954E+00
RMM:  15    -0.800270478795E+03   -0.95303E+01   -0.49554E+00 12640   0.278E+00    0.836E+00
RMM:  16    -0.807505562130E+03   -0.72351E+01   -0.29983E+00 12266   0.259E+00    0.586E+00
RMM:  17    -0.815004430166E+03   -0.74989E+01   -0.41051E+00 12428   0.266E+00    0.378E+00
RMM:  18    -0.818470156911E+03   -0.34657E+01   -0.15485E+00 12944   0.173E+00    0.297E+00
RMM:  19    -0.822587346492E+03   -0.41172E+01   -0.85430E-01 13223   0.120E+00    0.220E+00
RMM:  20    -0.824150019404E+03   -0.15627E+01   -0.29029E-01 13396   0.766E-01    0.170E+00
RMM:  21    -0.824707860050E+03   -0.55784E+00   -0.12658E-01 13798   0.521E-01    0.993E-01
RMM:  22    -0.825381072377E+03   -0.67321E+00   -0.90583E-02 13285   0.445E-01    0.709E-01
RMM:  23    -0.825939750410E+03   -0.55868E+00   -0.47157E-02 14012   0.305E-01    0.518E-01
RMM:  24    -0.826722398941E+03   -0.78265E+00   -0.32707E-02 12978   0.245E-01    0.376E-01
RMM:  25    -0.827185062038E+03   -0.46266E+00   -0.14597E-02 13130   0.212E-01    0.326E-01
RMM:  26    -0.827609041485E+03   -0.42398E+00   -0.72595E-03 13173   0.132E-01    0.210E-01
RMM:  27    -0.827807971199E+03   -0.19893E+00   -0.26015E-03 13003   0.839E-02    0.205E-01
RMM:  28    -0.828023696311E+03   -0.21573E+00   -0.20161E-03 12758   0.690E-02    0.149E-01
RMM:  29    -0.828202066514E+03   -0.17837E+00   -0.19319E-03 12852   0.623E-02    0.100E-01
RMM:  30    -0.828310022216E+03   -0.10796E+00   -0.20170E-03 12866   0.561E-02    0.695E-02
RMM:  31    -0.828337662468E+03   -0.27640E-01   -0.85857E-04 13483   0.340E-02    0.502E-02
RMM:  32    -0.828344673581E+03   -0.70111E-02   -0.31207E-04 12731   0.219E-02    0.424E-02
RMM:  33    -0.828348619441E+03   -0.39459E-02   -0.22300E-04 12762   0.193E-02    0.286E-02
RMM:  34    -0.828349903571E+03   -0.12841E-02   -0.99439E-05 12413   0.119E-02    0.196E-02
RMM:  35    -0.828350334671E+03   -0.43110E-03   -0.39537E-05 10963   0.952E-03    0.953E-03
RMM:  36    -0.828350606464E+03   -0.27179E-03   -0.20545E-05 10544   0.695E-03    0.114E-02
RMM:  37    -0.828350814736E+03   -0.20827E-03   -0.14940E-05  9994   0.566E-03    0.721E-03
RMM:  38    -0.828351189101E+03   -0.37436E-03   -0.88539E-06  9847   0.451E-03    0.730E-03
RMM:  39    -0.828351484599E+03   -0.29550E-03   -0.48782E-06  8965   0.355E-03    0.379E-03
RMM:  40    -0.828351739681E+03   -0.25508E-03   -0.23999E-06  7998   0.287E-03    0.396E-03
RMM:  41    -0.828351915962E+03   -0.17628E-03   -0.14349E-06  7603   0.248E-03    0.278E-03
RMM:  42    -0.828352197893E+03   -0.28193E-03   -0.17722E-06  7873   0.217E-03    0.154E-03
RMM:  43    -0.828352345092E+03   -0.14720E-03   -0.97494E-07  7542   0.177E-03    0.142E-03
RMM:  44    -0.828352440676E+03   -0.95584E-04   -0.83281E-07  7453   0.152E-03    0.105E-03
RMM:  45    -0.828352507951E+03   -0.67276E-04   -0.94017E-07  7394   0.132E-03    0.732E-04
RMM:  46    -0.828352536940E+03   -0.28989E-04   -0.64125E-07  7210   0.118E-03    0.654E-04
RMM:  47    -0.828352549078E+03   -0.12137E-04   -0.35361E-07  6793   0.988E-04    0.576E-04
RMM:  48    -0.828352555252E+03   -0.61738E-05   -0.24191E-07  6190   0.784E-04    0.354E-04
RMM:  49    -0.828352558429E+03   -0.31770E-05   -0.16863E-07  5753   0.657E-04    0.224E-04
RMM:  50    -0.828352559577E+03   -0.11481E-05   -0.97945E-08  5275   0.525E-04    0.176E-04
RMM:  51    -0.828352560359E+03   -0.78196E-06   -0.58215E-08  4710   0.413E-04
   1 F= -.83759244E+03 E0= -.83754493E+03  d E =-.837592E+03  mag=     0.0001
       N       E                     dE             d eps       ncg     rms          rms(c)
DAV:   1    -0.828235408556E+03    0.11715E+00   -0.17390E+01 12816   0.530E+00    0.464E+00
RMM:   2    -0.828296620657E+03   -0.61212E-01   -0.90905E-01 14420   0.168E+00    0.102E+00
RMM:   3    -0.828338963121E+03   -0.42342E-01   -0.13143E-01 14172   0.669E-01    0.176E+00
RMM:   4    -0.828291826976E+03    0.47136E-01   -0.42336E-02 13189   0.482E-01    0.596E-01
RMM:   5    -0.828290147187E+03    0.16798E-02   -0.14995E-02 13451   0.243E-01    0.447E-01
RMM:   6    -0.828288507150E+03    0.16400E-02   -0.92643E-03 13812   0.196E-01    0.302E-01
RMM:   7    -0.828287906660E+03    0.60049E-03   -0.41764E-03 13469   0.138E-01    0.169E-01
RMM:   8    -0.828287863108E+03    0.43552E-04   -0.13762E-03 14050   0.648E-02    0.123E-01
RMM:   9    -0.828287672000E+03    0.19111E-03   -0.41446E-04 12949   0.350E-02    0.446E-02
RMM:  10    -0.828287727900E+03   -0.55900E-04   -0.29051E-04 14653   0.227E-02    0.378E-02
RMM:  11    -0.828287774132E+03   -0.46233E-04   -0.98640E-05 12558   0.199E-02    0.308E-02
RMM:  12    -0.828287784338E+03   -0.10206E-04   -0.36192E-05 11613   0.108E-02    0.132E-02
RMM:  13    -0.828287805724E+03   -0.21386E-04   -0.15757E-05 11143   0.557E-03    0.904E-03
RMM:  14    -0.828287830358E+03   -0.24634E-04   -0.57658E-06  9987   0.417E-03    0.620E-03
RMM:  15    -0.828287892674E+03   -0.62316E-04   -0.54750E-06  9518   0.346E-03    0.469E-03
RMM:  16    -0.828287919391E+03   -0.26717E-04   -0.19925E-06  7854   0.302E-03    0.358E-03
RMM:  17    -0.828287941268E+03   -0.21877E-04   -0.14589E-06  7658   0.228E-03    0.222E-03
RMM:  18    -0.828287967474E+03   -0.26206E-04   -0.13057E-06  7623   0.182E-03    0.244E-03
RMM:  19    -0.828287994369E+03   -0.26895E-04   -0.15443E-06  7564   0.178E-03    0.177E-03
RMM:  20    -0.828288028513E+03   -0.34144E-04   -0.28662E-06  8399   0.177E-03    0.118E-03
RMM:  21    -0.828288038881E+03   -0.10367E-04   -0.78237E-07  6974   0.145E-03    0.792E-04
RMM:  22    -0.828288044937E+03   -0.60560E-05   -0.43919E-07  6457   0.109E-03    0.620E-04
RMM:  23    -0.828288052575E+03   -0.76388E-05   -0.40624E-07  6341   0.958E-04    0.527E-04
RMM:  24    -0.828288056636E+03   -0.40601E-05   -0.27253E-07  5997   0.847E-04    0.445E-04
RMM:  25    -0.828288059051E+03   -0.24157E-05   -0.18325E-07  5759   0.670E-04    0.255E-04
RMM:  26    -0.828288061096E+03   -0.20449E-05   -0.12209E-07  5434   0.587E-04    0.208E-04
RMM:  27    -0.828288063631E+03   -0.25346E-05   -0.10963E-07  5407   0.490E-04    0.183E-04
RMM:  28    -0.828288065821E+03   -0.21903E-05   -0.10311E-07  5404   0.501E-04    0.230E-04
RMM:  29    -0.828288066306E+03   -0.48494E-06   -0.61236E-08  5055   0.442E-04
   2 F= -.83752809E+03 E0= -.83748109E+03  d E =0.643483E-01  mag=     0.0000
       N       E                     dE             d eps       ncg     rms          rms(c)
DAV:   1    -0.828357026265E+03   -0.68960E-01   -0.73064E+00 12224   0.344E+00    0.289E+00
RMM:   2    -0.828383068973E+03   -0.26043E-01   -0.38610E-01 14705   0.106E+00    0.640E-01
RMM:   3    -0.828398871851E+03   -0.15803E-01   -0.47347E-02 14340   0.383E-01    0.107E+00
RMM:   4    -0.828380706798E+03    0.18165E-01   -0.14731E-02 13106   0.284E-01    0.349E-01
RMM:   5    -0.828380226887E+03    0.47991E-03   -0.61156E-03 13468   0.160E-01    0.292E-01
RMM:   6    -0.828379441702E+03    0.78518E-03   -0.36908E-03 13443   0.133E-01    0.163E-01
RMM:   7    -0.828379307310E+03    0.13439E-03   -0.14343E-03 13998   0.735E-02    0.960E-02
RMM:   8    -0.828379271165E+03    0.36145E-04   -0.40497E-04 13052   0.370E-02    0.674E-02
RMM:   9    -0.828379228144E+03    0.43020E-04   -0.14274E-04 12897   0.194E-02    0.301E-02
RMM:  10    -0.828379270185E+03   -0.42040E-04   -0.12085E-04 14042   0.150E-02    0.330E-02
RMM:  11    -0.828379281418E+03   -0.11233E-04   -0.42562E-05 11867   0.148E-02    0.156E-02
RMM:  12    -0.828379292774E+03   -0.11356E-04   -0.12626E-05 10038   0.658E-03    0.987E-03
RMM:  13    -0.828379301760E+03   -0.89862E-05   -0.54187E-06  9350   0.404E-03    0.545E-03
RMM:  14    -0.828379316978E+03   -0.15218E-04   -0.24060E-06  8119   0.256E-03    0.393E-03
RMM:  15    -0.828379347397E+03   -0.30420E-04   -0.30340E-06  8556   0.303E-03    0.374E-03
RMM:  16    -0.828379362979E+03   -0.15581E-04   -0.14700E-06  7546   0.239E-03    0.191E-03
RMM:  17    -0.828379374864E+03   -0.11886E-04   -0.93287E-07  7419   0.178E-03    0.183E-03
RMM:  18    -0.828379385740E+03   -0.10876E-04   -0.69738E-07  7165   0.145E-03    0.140E-03
RMM:  19    -0.828379403780E+03   -0.18041E-04   -0.13684E-06  7354   0.138E-03    0.116E-03
RMM:  20    -0.828379417525E+03   -0.13744E-04   -0.13337E-06  7403   0.148E-03    0.882E-04
RMM:  21    -0.828379421710E+03   -0.41849E-05   -0.52321E-07  6370   0.117E-03    0.505E-04
RMM:  22    -0.828379426394E+03   -0.46846E-05   -0.39807E-07  6429   0.915E-04    0.581E-04
RMM:  23    -0.828379429519E+03   -0.31251E-05   -0.28435E-07  6350   0.878E-04    0.427E-04
RMM:  24    -0.828379431682E+03   -0.21626E-05   -0.20522E-07  5609   0.665E-04    0.315E-04
RMM:  25    -0.828379432290E+03   -0.60844E-06   -0.11051E-07  5296   0.598E-04
   3 F= -.83761940E+03 E0= -.83757206E+03  d E =-.269577E-01  mag=    -0.0000
       N       E                     dE             d eps       ncg     rms          rms(c)
DAV:   1    -0.828376516183E+03    0.29155E-02   -0.23108E+00 12464   0.194E+00    0.864E-01
RMM:   2    -0.828386803153E+03   -0.10287E-01   -0.11117E-01 14018   0.627E-01    0.388E-01
RMM:   3    -0.828393555136E+03   -0.67520E-02   -0.26213E-02 13391   0.355E-01    0.763E-01
RMM:   4    -0.828386025403E+03    0.75297E-02   -0.73399E-03 13086   0.201E-01    0.226E-01
RMM:   5    -0.828385707016E+03    0.31839E-03   -0.21500E-03 14044   0.783E-02    0.176E-01
RMM:   6    -0.828385491218E+03    0.21580E-03   -0.96894E-04 13652   0.501E-02    0.987E-02
RMM:   7    -0.828385486988E+03    0.42303E-05   -0.71842E-04 13437   0.555E-02    0.691E-02
RMM:   8    -0.828385478243E+03    0.87452E-05   -0.19129E-04 12485   0.314E-02    0.609E-02
RMM:   9    -0.828385425927E+03    0.52316E-04   -0.61366E-05 11464   0.175E-02    0.211E-02
RMM:  10    -0.828385425552E+03    0.37487E-06   -0.38332E-05 12314   0.976E-03    0.166E-02
RMM:  11    -0.828385426580E+03   -0.10277E-05   -0.20103E-05 10872   0.922E-03    0.121E-02
RMM:  12    -0.828385426941E+03   -0.36100E-06   -0.64776E-06  9518   0.452E-03
   4 F= -.83762607E+03 E0= -.83757864E+03  d E =-.667557E-02  mag=     0.0000
       N       E                     dE             d eps       ncg     rms          rms(c)
DAV:   1    -0.828386012347E+03   -0.58577E-03   -0.16818E-01 12784   0.525E-01    0.233E-01
RMM:   2    -0.828386744692E+03   -0.73235E-03   -0.79697E-03 14069   0.164E-01    0.972E-02
RMM:   3    -0.828387103997E+03   -0.35931E-03   -0.16691E-03 13405   0.894E-02    0.185E-01
RMM:   4    -0.828386698438E+03    0.40556E-03   -0.48227E-04 12734   0.521E-02    0.575E-02
RMM:   5    -0.828386686036E+03    0.12402E-04   -0.14578E-04 12988   0.212E-02    0.496E-02
RMM:   6    -0.828386668344E+03    0.17692E-04   -0.90278E-05 13313   0.139E-02    0.201E-02
RMM:   7    -0.828386670838E+03   -0.24937E-05   -0.27234E-05 11807   0.123E-02    0.188E-02
RMM:   8    -0.828386668591E+03    0.22470E-05   -0.10619E-05  9838   0.782E-03    0.122E-02
RMM:   9    -0.828386666947E+03    0.16440E-05   -0.29434E-06  8710   0.418E-03    0.589E-03
RMM:  10    -0.828386667333E+03   -0.38579E-06   -0.24816E-06  8514   0.333E-03
   5 F= -.83762714E+03 E0= -.83757972E+03  d E =-.773664E-02  mag=     0.0000
       N       E                     dE             d eps       ncg     rms          rms(c)
DAV:   1    -0.828387235393E+03   -0.56845E-03   -0.13811E+00 12672   0.144E+00    0.512E-01
RMM:   2    -0.828391231738E+03   -0.39963E-02   -0.39931E-02 14099   0.368E-01    0.261E-01
RMM:   3    -0.828395070104E+03   -0.38384E-02   -0.85342E-03 13860   0.177E-01    0.539E-01
RMM:   4    -0.828390425716E+03    0.46444E-02   -0.27708E-03 13015   0.124E-01    0.127E-01
RMM:   5    -0.828390380245E+03    0.45471E-04   -0.63130E-04 13813   0.447E-02    0.105E-01
RMM:   6    -0.828390366098E+03    0.14146E-04   -0.59039E-04 13918   0.372E-02    0.774E-02
RMM:   7    -0.828390326876E+03    0.39223E-04   -0.22205E-04 12539   0.323E-02    0.371E-02
RMM:   8    -0.828390316849E+03    0.10027E-04   -0.41956E-05 11449   0.133E-02    0.260E-02
RMM:   9    -0.828390308456E+03    0.83935E-05   -0.17008E-05 10102   0.839E-03    0.132E-02
RMM:  10    -0.828390308705E+03   -0.24951E-06   -0.28552E-05 11663   0.694E-03    0.135E-02
RMM:  11    -0.828390308094E+03    0.61087E-06   -0.10075E-05 10073   0.621E-03    0.582E-03
RMM:  12    -0.828390308048E+03    0.45940E-07   -0.16187E-06  7646   0.278E-03
   6 F= -.83763118E+03 E0= -.83758387E+03  d E =-.404845E-02  mag=     0.0000
       N       E                     dE             d eps       ncg     rms          rms(c)
DAV:   1    -0.828390280320E+03    0.27775E-04   -0.10717E-02 13488   0.128E-01    0.451E-02
RMM:   2    -0.828390312846E+03   -0.32526E-04   -0.31645E-04 13923   0.336E-02    0.238E-02
RMM:   3    -0.828390343587E+03   -0.30741E-04   -0.74124E-05 12699   0.171E-02    0.484E-02
RMM:   4    -0.828390306898E+03    0.36688E-04   -0.22765E-05 10430   0.116E-02    0.112E-02
RMM:   5    -0.828390306699E+03    0.19958E-06   -0.50514E-06  9368   0.435E-03
   7 F= -.83763122E+03 E0= -.83758391E+03  d E =-.408043E-02  mag=     0.0000
       N       E                     dE             d eps       ncg     rms          rms(c)
DAV:   1    -0.828391335543E+03   -0.10286E-02   -0.64674E-01 12752   0.988E-01    0.276E-01
RMM:   2    -0.828392873106E+03   -0.15376E-02   -0.17874E-02 14200   0.241E-01    0.104E-01
RMM:   3    -0.828393106867E+03   -0.23376E-03   -0.24348E-03 14244   0.859E-02    0.148E-01
RMM:   4    -0.828392917202E+03    0.18967E-03   -0.47895E-04 12807   0.471E-02    0.831E-02
RMM:   5    -0.828392909988E+03    0.72135E-05   -0.17027E-04 13485   0.218E-02    0.766E-02
RMM:   6    -0.828392870228E+03    0.39760E-04   -0.19625E-04 13507   0.221E-02    0.414E-02
RMM:   7    -0.828392864058E+03    0.61709E-05   -0.10522E-04 12777   0.207E-02    0.219E-02
RMM:   8    -0.828392860766E+03    0.32912E-05   -0.20006E-05 10456   0.957E-03    0.163E-02
RMM:   9    -0.828392858295E+03    0.24709E-05   -0.65492E-06  9539   0.542E-03    0.114E-02
RMM:  10    -0.828392857532E+03    0.76370E-06   -0.10684E-05 10440   0.440E-03    0.931E-03
RMM:  11    -0.828392857587E+03   -0.55748E-07   -0.58233E-06  9917   0.460E-03
   8 F= -.83763404E+03 E0= -.83758673E+03  d E =-.282857E-02  mag=     0.0000
       N       E                     dE             d eps       ncg     rms          rms(c)
DAV:   1    -0.828392786636E+03    0.70896E-04   -0.15561E-01 13144   0.485E-01    0.139E-01
RMM:   2    -0.828393164018E+03   -0.37738E-03   -0.43395E-03 14136   0.119E-01    0.547E-02
RMM:   3    -0.828393227322E+03   -0.63304E-04   -0.63396E-04 13649   0.467E-02    0.815E-02
RMM:   4    -0.828393168009E+03    0.59313E-04   -0.15220E-04 12087   0.277E-02    0.396E-02
RMM:   5    -0.828393167338E+03    0.67048E-06   -0.49954E-05 12260   0.118E-02    0.361E-02
RMM:   6    -0.828393161594E+03    0.57439E-05   -0.40266E-05 12413   0.107E-02    0.240E-02
RMM:   7    -0.828393158296E+03    0.32978E-05   -0.25900E-05 11796   0.975E-03    0.127E-02
RMM:   8    -0.828393157449E+03    0.84742E-06   -0.61256E-06  9454   0.560E-03
   9 F= -.83763447E+03 E0= -.83758714E+03  d E =-.325534E-02  mag=     0.0000
       N       E                     dE             d eps       ncg     rms          rms(c)
DAV:   1    -0.828393125484E+03    0.32812E-04   -0.56513E-03 13776   0.939E-02    0.284E-02
RMM:   2    -0.828393142733E+03   -0.17249E-04   -0.21340E-04 14996   0.235E-02    0.117E-02
RMM:   3    -0.828393145049E+03   -0.23158E-05   -0.19501E-05 10921   0.892E-03    0.155E-02
RMM:   4    -0.828393143051E+03    0.19980E-05   -0.52832E-06  9294   0.591E-03    0.755E-03
RMM:   5    -0.828393143471E+03   -0.42024E-06   -0.19891E-06  7952   0.326E-03
  10 F= -.83763448E+03 E0= -.83758715E+03  d E =-.326491E-02  mag=     0.0000
       N       E                     dE             d eps       ncg     rms          rms(c)
DAV:   1    -0.828393466934E+03   -0.32388E-03   -0.65109E-02 12272   0.286E-01    0.131E-01
RMM:   2    -0.828393723020E+03   -0.25609E-03   -0.28224E-03 13889   0.851E-02    0.488E-02
RMM:   3    -0.828393834605E+03   -0.11159E-03   -0.42030E-04 13859   0.345E-02    0.904E-02
RMM:   4    -0.828393721577E+03    0.11303E-03   -0.94678E-05 11952   0.223E-02    0.379E-02
RMM:   5    -0.828393717166E+03    0.44120E-05   -0.23692E-05 11355   0.823E-03    0.304E-02
RMM:   6    -0.828393715343E+03    0.18227E-05   -0.31315E-05 11987   0.860E-03    0.190E-02
RMM:   7    -0.828393716234E+03   -0.89069E-06   -0.16556E-05 11029   0.786E-03    0.113E-02
RMM:   8    -0.828393714937E+03    0.12960E-05   -0.24638E-06  8032   0.340E-03    0.797E-03
RMM:   9    -0.828393714372E+03    0.56511E-06   -0.13426E-06  7407   0.323E-03
  11 F= -.83763523E+03 E0= -.83758790E+03  d E =-.751924E-03  mag=     0.0000
       N       E                     dE             d eps       ncg     rms          rms(c)
DAV:   1    -0.828393031682E+03    0.68326E-03   -0.38501E-01 12136   0.695E-01    0.321E-01
RMM:   2    -0.828394516574E+03   -0.14849E-02   -0.16392E-02 13961   0.198E-01    0.117E-01
RMM:   3    -0.828395133605E+03   -0.61703E-03   -0.23137E-03 13964   0.819E-02    0.218E-01
RMM:   4    -0.828394490929E+03    0.64268E-03   -0.55001E-04 12851   0.530E-02    0.937E-02
RMM:   5    -0.828394469429E+03    0.21500E-04   -0.14337E-04 13038   0.211E-02    0.777E-02
RMM:   6    -0.828394449630E+03    0.19799E-04   -0.15212E-04 13024   0.193E-02    0.487E-02
RMM:   7    -0.828394455869E+03   -0.62393E-05   -0.12140E-04 13282   0.195E-02    0.326E-02
RMM:   8    -0.828394447341E+03    0.85279E-05   -0.23629E-05 10661   0.105E-02    0.185E-02
RMM:   9    -0.828394442380E+03    0.49615E-05   -0.45977E-06  9355   0.449E-03    0.108E-02
RMM:  10    -0.828394440902E+03    0.14781E-05   -0.16839E-05 10841   0.419E-03    0.733E-03
RMM:  11    -0.828394440913E+03   -0.11089E-07   -0.32508E-06  8486   0.419E-03
  12 F= -.83763639E+03 E0= -.83758906E+03  d E =-.190938E-02  mag=    -0.0000
       N       E                     dE             d eps       ncg     rms          rms(c)
DAV:   1    -0.828387560070E+03    0.68808E-02   -0.15379E+00 12128   0.139E+00    0.646E-01
RMM:   2    -0.828393423565E+03   -0.58635E-02   -0.64749E-02 13955   0.393E-01    0.235E-01
RMM:   3    -0.828395610089E+03   -0.21865E-02   -0.86442E-03 14218   0.155E-01    0.412E-01
RMM:   4    -0.828393327660E+03    0.22824E-02   -0.19876E-03 13008   0.100E-01    0.186E-01
RMM:   5    -0.828393233422E+03    0.94238E-04   -0.51800E-04 13579   0.415E-02    0.152E-01
RMM:   6    -0.828393157541E+03    0.75881E-04   -0.59024E-04 13561   0.391E-02    0.970E-02
RMM:   7    -0.828393175450E+03   -0.17910E-04   -0.42861E-04 13785   0.346E-02    0.589E-02
RMM:   8    -0.828393145717E+03    0.29733E-04   -0.83039E-05 12157   0.190E-02    0.388E-02
RMM:   9    -0.828393127952E+03    0.17765E-04   -0.23675E-05 10475   0.106E-02    0.227E-02
RMM:  10    -0.828393120225E+03    0.77272E-05   -0.54246E-05 12645   0.863E-03    0.146E-02
RMM:  11    -0.828393120262E+03   -0.37107E-07   -0.14681E-05 10396   0.792E-03    0.824E-03
RMM:  12    -0.828393120576E+03   -0.31378E-06   -0.33649E-06  8361   0.311E-03
  13 F= -.83763590E+03 E0= -.83758857E+03  d E =-.141416E-02  mag=    -0.0000
       N       E                     dE             d eps       ncg     rms          rms(c)
DAV:   1    -0.828391936962E+03    0.11833E-02   -0.67411E-01 12140   0.921E-01    0.416E-01
RMM:   2    -0.828394538954E+03   -0.26020E-02   -0.28804E-02 13943   0.263E-01    0.154E-01
RMM:   3    -0.828395648969E+03   -0.11100E-02   -0.41546E-03 14024   0.110E-01    0.291E-01
RMM:   4    -0.828394500251E+03    0.11487E-02   -0.98505E-04 12932   0.710E-02    0.124E-01
RMM:   5    -0.828394462512E+03    0.37740E-04   -0.25540E-04 13573   0.278E-02    0.103E-01
RMM:   6    -0.828394432721E+03    0.29791E-04   -0.23226E-04 13212   0.247E-02    0.683E-02
RMM:   7    -0.828394446553E+03   -0.13832E-04   -0.22264E-04 13614   0.261E-02    0.466E-02
RMM:   8    -0.828394430287E+03    0.16266E-04   -0.49765E-05 11455   0.149E-02    0.268E-02
RMM:   9    -0.828394420131E+03    0.10156E-04   -0.12121E-05 10038   0.771E-03    0.147E-02
RMM:  10    -0.828394416050E+03    0.40811E-05   -0.20649E-05 11414   0.598E-03    0.101E-02
RMM:  11    -0.828394415743E+03    0.30739E-06   -0.75878E-06  9892   0.529E-03
  14 F= -.83763665E+03 E0= -.83758933E+03  d E =-.216821E-02  mag=     0.0000
       N       E                     dE             d eps       ncg     rms          rms(c)
DAV:   1    -0.828394606739E+03   -0.19069E-03   -0.32034E-02 12688   0.191E-01    0.989E-02
RMM:   2    -0.828394774269E+03   -0.16753E-03   -0.17319E-03 13781   0.640E-02    0.498E-02
RMM:   3    -0.828394873492E+03   -0.99223E-04   -0.29353E-04 13449   0.320E-02    0.899E-02
RMM:   4    -0.828394755567E+03    0.11792E-03   -0.90086E-05 11906   0.224E-02    0.303E-02
RMM:   5    -0.828394753421E+03    0.21459E-05   -0.18032E-05 11115   0.728E-03    0.254E-02
RMM:   6    -0.828394752731E+03    0.69002E-06   -0.14246E-05 10904   0.664E-03    0.180E-02
RMM:   7    -0.828394753868E+03   -0.11374E-05   -0.15909E-05 11446   0.642E-03    0.116E-02
RMM:   8    -0.828394752602E+03    0.12664E-05   -0.30346E-06  8689   0.418E-03    0.729E-03
RMM:   9    -0.828394751922E+03    0.68007E-06   -0.94328E-07  7186   0.278E-03
  15 F= -.83763719E+03 E0= -.83758986E+03  d E =-.544009E-03  mag=    -0.0000
       N       E                     dE             d eps       ncg     rms          rms(c)
DAV:   1    -0.828393999625E+03    0.75298E-03   -0.29057E-01 12072   0.573E-01    0.305E-01
RMM:   2    -0.828395464665E+03   -0.14650E-02   -0.15322E-02 14102   0.179E-01    0.138E-01
RMM:   3    -0.828396276914E+03   -0.81225E-03   -0.20678E-03 13867   0.813E-02    0.256E-01
RMM:   4    -0.828395300677E+03    0.97624E-03   -0.66905E-04 12863   0.612E-02    0.890E-02
RMM:   5    -0.828395281320E+03    0.19357E-04   -0.12382E-04 13399   0.197E-02    0.724E-02
RMM:   6    -0.828395276640E+03    0.46803E-05   -0.15304E-04 13027   0.205E-02    0.530E-02
RMM:   7    -0.828395273771E+03    0.28685E-05   -0.10789E-04 13081   0.187E-02    0.310E-02
RMM:   8    -0.828395263995E+03    0.97767E-05   -0.20589E-05 10752   0.956E-03    0.180E-02
RMM:   9    -0.828395259912E+03    0.40824E-05   -0.50037E-06  9338   0.543E-03    0.109E-02
RMM:  10    -0.828395258258E+03    0.16544E-05   -0.90992E-06 10165   0.443E-03    0.939E-03
RMM:  11    -0.828395257828E+03    0.42947E-06   -0.68417E-06 10112   0.455E-03
  16 F= -.83763832E+03 E0= -.83759098E+03  d E =-.167041E-02  mag=    -0.0000
       N       E                     dE             d eps       ncg     rms          rms(c)
DAV:   1    -0.828389039189E+03    0.62191E-02   -0.11620E+00 11984   0.115E+00    0.615E-01
RMM:   2    -0.828394894298E+03   -0.58551E-02   -0.60506E-02 13999   0.359E-01    0.280E-01
RMM:   3    -0.828398218438E+03   -0.33241E-02   -0.85220E-03 13904   0.168E-01    0.517E-01
RMM:   4    -0.828394212638E+03    0.40058E-02   -0.27814E-03 12947   0.124E-01    0.179E-01
RMM:   5    -0.828394137234E+03    0.75404E-04   -0.51827E-04 13957   0.396E-02    0.145E-01
RMM:   6    -0.828394106547E+03    0.30687E-04   -0.60771E-04 13462   0.407E-02    0.104E-01
RMM:   7    -0.828394097515E+03    0.90321E-05   -0.40738E-04 13678   0.349E-02    0.619E-02
RMM:   8    -0.828394056801E+03    0.40714E-04   -0.80907E-05 12316   0.184E-02    0.364E-02
RMM:   9    -0.828394041311E+03    0.15489E-04   -0.21671E-05 10360   0.106E-02    0.220E-02
RMM:  10    -0.828394035216E+03    0.60957E-05   -0.36516E-05 12110   0.870E-03    0.196E-02
RMM:  11    -0.828394033576E+03    0.16400E-05   -0.25405E-05 11702   0.852E-03    0.101E-02
RMM:  12    -0.828394033052E+03    0.52409E-06   -0.36036E-06  8634   0.330E-03
  17 F= -.83763832E+03 E0= -.83759095E+03  d E =-.167292E-02  mag=    -0.0000
       N       E                     dE             d eps       ncg     rms          rms(c)
DAV:   1    -0.828393616658E+03    0.41692E-03   -0.32984E-01 12092   0.612E-01    0.316E-01
RMM:   2    -0.828395266734E+03   -0.16501E-02   -0.17390E-02 13877   0.195E-01    0.142E-01
RMM:   3    -0.828396150156E+03   -0.88342E-03   -0.24711E-03 13960   0.866E-02    0.264E-01
RMM:   4    -0.828395108625E+03    0.10415E-02   -0.73763E-04 12868   0.635E-02    0.968E-02
RMM:   5    -0.828395085710E+03    0.22915E-04   -0.14425E-04 13418   0.214E-02    0.786E-02
RMM:   6    -0.828395079687E+03    0.60228E-05   -0.17521E-04 13074   0.211E-02    0.557E-02
RMM:   7    -0.828395082807E+03   -0.31202E-05   -0.12808E-04 13188   0.202E-02    0.351E-02
RMM:   8    -0.828395071015E+03    0.11792E-04   -0.25212E-05 11064   0.104E-02    0.207E-02
RMM:   9    -0.828395065373E+03    0.56425E-05   -0.68602E-06  9566   0.631E-03    0.121E-02
RMM:  10    -0.828395062812E+03    0.25609E-05   -0.11627E-05 10491   0.468E-03    0.839E-03
RMM:  11    -0.828395062632E+03    0.18002E-06   -0.75663E-06 10202   0.456E-03
  18 F= -.83763870E+03 E0= -.83759134E+03  d E =-.205027E-02  mag=    -0.0000
       N       E                     dE             d eps       ncg     rms          rms(c)
DAV:   1    -0.828394820692E+03    0.24212E-03   -0.11845E-01 12336   0.359E-01    0.155E-01
RMM:   2    -0.828395347520E+03   -0.52683E-03   -0.61808E-03 13674   0.119E-01    0.635E-02
RMM:   3    -0.828395494711E+03   -0.14719E-03   -0.88961E-04 14330   0.447E-02    0.999E-02
RMM:   4    -0.828395380382E+03    0.11433E-03   -0.13930E-04 12287   0.250E-02    0.573E-02
RMM:   5    -0.828395370368E+03    0.10014E-04   -0.29608E-05 12113   0.870E-03    0.465E-02
RMM:   6    -0.828395366664E+03    0.37038E-05   -0.55770E-05 12430   0.114E-02    0.316E-02
RMM:   7    -0.828395370739E+03   -0.40755E-05   -0.57825E-05 13146   0.116E-02    0.179E-02
RMM:   8    -0.828395367637E+03    0.31028E-05   -0.68056E-06  9761   0.541E-03    0.129E-02
RMM:   9    -0.828395365871E+03    0.17655E-05   -0.17427E-06  7770   0.328E-03    0.106E-02
RMM:  10    -0.828395363240E+03    0.26313E-05   -0.90126E-06  9920   0.382E-03    0.646E-03
RMM:  11    -0.828395362990E+03    0.24943E-06   -0.42848E-06  8861   0.371E-03
  19 F= -.83763959E+03 E0= -.83759220E+03  d E =-.888444E-03  mag=    -0.0000
       N       E                     dE             d eps       ncg     rms          rms(c)
DAV:   1    -0.828391786045E+03    0.35772E-02   -0.73836E-01 11984   0.895E-01    0.391E-01
RMM:   2    -0.828395056315E+03   -0.32703E-02   -0.38122E-02 13863   0.289E-01    0.149E-01
RMM:   3    -0.828395799079E+03   -0.74276E-03   -0.49812E-03 14741   0.957E-02    0.221E-01
RMM:   4    -0.828395263472E+03    0.53561E-03   -0.65507E-04 12924   0.518E-02    0.143E-01
RMM:   5    -0.828395189082E+03    0.74390E-04   -0.14097E-04 13458   0.204E-02    0.113E-01
RMM:   6    -0.828395156804E+03    0.32279E-04   -0.43541E-04 13739   0.274E-02    0.650E-02
RMM:   7    -0.828395184950E+03   -0.28146E-04   -0.25357E-04 13409   0.274E-02    0.461E-02
RMM:   8    -0.828395163444E+03    0.21506E-04   -0.43622E-05 11855   0.124E-02    0.298E-02
RMM:   9    -0.828395153533E+03    0.99101E-05   -0.11765E-05 10288   0.693E-03    0.254E-02
RMM:  10    -0.828395138468E+03    0.15066E-04   -0.66728E-05 12948   0.867E-03    0.114E-02
RMM:  11    -0.828395138535E+03   -0.67419E-07   -0.12688E-05 10559   0.727E-03    0.654E-03
RMM:  12    -0.828395138553E+03   -0.18466E-07   -0.21568E-06  7700   0.291E-03
  20 F= -.83764083E+03 E0= -.83759338E+03  d E =-.212754E-02  mag=    -0.0000
       N       E                     dE             d eps       ncg     rms          rms(c)
DAV:   1    -0.828395069409E+03    0.69126E-04   -0.11498E-01 12216   0.358E-01    0.147E-01
RMM:   2    -0.828395556026E+03   -0.48662E-03   -0.57199E-03 13654   0.115E-01    0.563E-02
RMM:   3    -0.828395666802E+03   -0.11078E-03   -0.81170E-04 14365   0.407E-02    0.843E-02
RMM:   4    -0.828395596054E+03    0.70748E-04   -0.10124E-04 12110   0.209E-02    0.544E-02
RMM:   5    -0.828395586108E+03    0.99455E-05   -0.21927E-05 11595   0.762E-03    0.445E-02
RMM:   6    -0.828395581148E+03    0.49608E-05   -0.37327E-05 12135   0.969E-03    0.312E-02
RMM:   7    -0.828395583990E+03   -0.28420E-05   -0.60703E-05 13267   0.107E-02    0.153E-02
RMM:   8    -0.828395582538E+03    0.14513E-05   -0.66446E-06  9616   0.586E-03    0.116E-02
RMM:   9    -0.828395581312E+03    0.12259E-05   -0.13463E-06  7484   0.283E-03    0.960E-03
RMM:  10    -0.828395579550E+03    0.17625E-05   -0.79737E-06  9517   0.331E-03    0.492E-03
RMM:  11    -0.828395579744E+03   -0.19357E-06   -0.22267E-06  7752   0.344E-03
  21 F= -.83764188E+03 E0= -.83759440E+03  d E =-.105242E-02  mag=    -0.0000
       N       E                     dE             d eps       ncg     rms          rms(c)
DAV:   1    -0.828391135385E+03    0.44442E-02   -0.10356E+00 11972   0.108E+00    0.441E-01
RMM:   2    -0.828395530817E+03   -0.43954E-02   -0.51537E-02 13650   0.346E-01    0.165E-01
RMM:   3    -0.828396474536E+03   -0.94372E-03   -0.73433E-03 14659   0.121E-01    0.247E-01
RMM:   4    -0.828395903102E+03    0.57143E-03   -0.87376E-04 12970   0.597E-02    0.167E-01
RMM:   5    -0.828395815558E+03    0.87545E-04   -0.19023E-04 13494   0.233E-02    0.139E-01
RMM:   6    -0.828395751819E+03    0.63738E-04   -0.36594E-04 13508   0.275E-02    0.909E-02
RMM:   7    -0.828395784155E+03   -0.32335E-04   -0.50575E-04 14166   0.327E-02    0.554E-02
RMM:   8    -0.828395763175E+03    0.20980E-04   -0.81098E-05 11828   0.189E-02    0.364E-02
RMM:   9    -0.828395752267E+03    0.10909E-04   -0.18595E-05 10832   0.836E-03    0.309E-02
RMM:  10    -0.828395730319E+03    0.21947E-04   -0.60960E-05 12844   0.876E-03    0.174E-02
RMM:  11    -0.828395728268E+03    0.20515E-05   -0.23947E-05 11684   0.870E-03    0.831E-03
RMM:  12    -0.828395728502E+03   -0.23388E-06   -0.37843E-06  8858   0.376E-03
  22 F= -.83764386E+03 E0= -.83759630E+03  d E =-.303525E-02  mag=    -0.0000
       N       E                     dE             d eps       ncg     rms          rms(c)
DAV:   1    -0.828372217069E+03    0.23511E-01   -0.41377E+00 11960   0.215E+00    0.888E-01
RMM:   2    -0.828389901754E+03   -0.17685E-01   -0.20747E-01 13513   0.711E-01    0.330E-01
RMM:   3    -0.828393909403E+03   -0.40076E-02   -0.31306E-02 14633   0.258E-01    0.509E-01
RMM:   4    -0.828391494009E+03    0.24154E-02   -0.38161E-03 13027   0.125E-01    0.340E-01
RMM:   5    -0.828391167684E+03    0.32632E-03   -0.85735E-04 14045   0.486E-02    0.289E-01
RMM:   6    -0.828390856779E+03    0.31091E-03   -0.11891E-03 13790   0.487E-02    0.192E-01
RMM:   7    -0.828390992303E+03   -0.13552E-03   -0.21685E-03 14202   0.670E-02    0.123E-01
RMM:   8    -0.828390909042E+03    0.83260E-04   -0.41922E-04 13051   0.412E-02    0.784E-02
RMM:   9    -0.828390856295E+03    0.52748E-04   -0.97695E-05 12532   0.182E-02    0.636E-02
RMM:  10    -0.828390758853E+03    0.97441E-04   -0.23848E-04 13594   0.172E-02    0.323E-02
RMM:  11    -0.828390752395E+03    0.64586E-05   -0.96746E-05 12821   0.163E-02    0.192E-02
RMM:  12    -0.828390752255E+03    0.14009E-06   -0.18308E-05 11146   0.762E-03    0.850E-03
RMM:  13    -0.828390752832E+03   -0.57739E-06   -0.26034E-06  8383   0.346E-03
  23 F= -.83764256E+03 E0= -.83759482E+03  d E =-.172957E-02  mag=    -0.0000
       N       E                     dE             d eps       ncg     rms          rms(c)
DAV:   1    -0.828385837427E+03    0.49148E-02   -0.20622E+00 11960   0.152E+00    0.623E-01
RMM:   2    -0.828394624634E+03   -0.87872E-02   -0.10269E-01 13697   0.486E-01    0.240E-01
RMM:   3    -0.828396575068E+03   -0.19504E-02   -0.14471E-02 14717   0.171E-01    0.354E-01
RMM:   4    -0.828395344251E+03    0.12308E-02   -0.17720E-03 13010   0.852E-02    0.234E-01
RMM:   5    -0.828395161195E+03    0.18306E-03   -0.38006E-04 13821   0.323E-02    0.191E-01
RMM:   6    -0.828395056833E+03    0.10436E-03   -0.78642E-04 13742   0.418E-02    0.127E-01
RMM:   7    -0.828395111840E+03   -0.55006E-04   -0.97648E-04 14213   0.449E-02    0.727E-02
RMM:   8    -0.828395074493E+03    0.37346E-04   -0.13711E-04 12320   0.245E-02    0.505E-02
RMM:   9    -0.828395049013E+03    0.25480E-04   -0.31954E-05 11534   0.108E-02    0.418E-02
RMM:  10    -0.828395003993E+03    0.45020E-04   -0.15046E-04 13388   0.127E-02    0.209E-02
RMM:  11    -0.828395002333E+03    0.16605E-05   -0.39899E-05 11974   0.117E-02    0.115E-02
RMM:  12    -0.828395001777E+03    0.55562E-06   -0.60412E-06  9622   0.479E-03
  24 F= -.83764421E+03 E0= -.83759660E+03  d E =-.338776E-02  mag=     0.0000
       N       E                     dE             d eps       ncg     rms          rms(c)
DAV:   1    -0.828394500273E+03    0.50206E-03   -0.12689E-01 12672   0.365E-01    0.159E-01
RMM:   2    -0.828395076022E+03   -0.57575E-03   -0.65821E-03 13397   0.123E-01    0.623E-02
RMM:   3    -0.828395237041E+03   -0.16102E-03   -0.99323E-04 14387   0.457E-02    0.101E-01
RMM:   4    -0.828395121236E+03    0.11580E-03   -0.13150E-04 12386   0.238E-02    0.606E-02
RMM:   5    -0.828395111852E+03    0.93848E-05   -0.24553E-05 11866   0.797E-03    0.517E-02
RMM:   6    -0.828395104370E+03    0.74815E-05   -0.32221E-05 12141   0.863E-03    0.369E-02
RMM:   7    -0.828395110352E+03   -0.59819E-05   -0.79519E-05 13394   0.117E-02    0.205E-02
RMM:   8    -0.828395107748E+03    0.26041E-05   -0.11690E-05 10419   0.684E-03    0.142E-02
RMM:   9    -0.828395105805E+03    0.19427E-05   -0.23509E-06  8276   0.358E-03    0.114E-02
RMM:  10    -0.828395102391E+03    0.34140E-05   -0.73880E-06  9387   0.338E-03    0.525E-03
RMM:  11    -0.828395102137E+03    0.25460E-06   -0.41536E-06  8715   0.328E-03
  25 F= -.83764494E+03 E0= -.83759731E+03  d E =-.729357E-03  mag=     0.0000
       N       E                     dE             d eps       ncg     rms          rms(c)
DAV:   1    -0.828392429951E+03    0.26724E-02   -0.52324E-01 11984   0.741E-01    0.327E-01
RMM:   2    -0.828394815877E+03   -0.23859E-02   -0.27062E-02 13420   0.249E-01    0.129E-01
RMM:   3    -0.828395581852E+03   -0.76597E-03   -0.42064E-03 14327   0.995E-02    0.225E-01
RMM:   4    -0.828394983712E+03    0.59814E-03   -0.64224E-04 12995   0.536E-02    0.121E-01
RMM:   5    -0.828394945949E+03    0.37764E-04   -0.12939E-04 13899   0.166E-02    0.103E-01
RMM:   6    -0.828394911934E+03    0.34014E-04   -0.11125E-04 12841   0.169E-02    0.760E-02
RMM:   7    -0.828394928066E+03   -0.16131E-04   -0.31126E-04 14102   0.220E-02    0.442E-02
RMM:   8    -0.828394915134E+03    0.12931E-04   -0.52602E-05 11834   0.145E-02    0.271E-02
RMM:   9    -0.828394908574E+03    0.65598E-05   -0.11208E-05 10259   0.643E-03    0.224E-02
RMM:  10    -0.828394896140E+03    0.12434E-04   -0.26490E-05 12165   0.558E-03    0.109E-02
RMM:  11    -0.828394896034E+03    0.10588E-06   -0.13451E-05 11199   0.616E-03    0.847E-03
RMM:  12    -0.828394895668E+03    0.36649E-06   -0.23969E-06  7974   0.311E-03
  26 F= -.83764601E+03 E0= -.83759832E+03  d E =-.179930E-02  mag=    -0.0000
       N       E                     dE             d eps       ncg     rms          rms(c)
DAV:   1    -0.828382980547E+03    0.11915E-01   -0.20907E+00 11960   0.148E+00    0.656E-01
RMM:   2    -0.828392602275E+03   -0.96217E-02   -0.10864E-01 13392   0.502E-01    0.264E-01
RMM:   3    -0.828395882220E+03   -0.32799E-02   -0.17293E-02 14349   0.205E-01    0.468E-01
RMM:   4    -0.828393239038E+03    0.26432E-02   -0.27670E-03 13059   0.111E-01    0.243E-01
RMM:   5    -0.828393096099E+03    0.14294E-03   -0.57643E-04 14651   0.347E-02    0.209E-01
RMM:   6    -0.828392944688E+03    0.15141E-03   -0.41863E-04 13309   0.322E-02    0.155E-01
RMM:   7    -0.828392995038E+03   -0.50350E-04   -0.12465E-03 14374   0.448E-02    0.897E-02
RMM:   8    -0.828392951643E+03    0.43395E-04   -0.23703E-04 12905   0.295E-02    0.556E-02
RMM:   9    -0.828392925972E+03    0.25671E-04   -0.52898E-05 11802   0.137E-02    0.460E-02
RMM:  10    -0.828392875147E+03    0.50825E-04   -0.92895E-05 13053   0.107E-02    0.234E-02
RMM:  11    -0.828392872597E+03    0.25503E-05   -0.58062E-05 12859   0.112E-02    0.164E-02
RMM:  12    -0.828392871239E+03    0.13581E-05   -0.10061E-05 10588   0.593E-03    0.744E-03
RMM:  13    -0.828392871362E+03   -0.12324E-06   -0.14424E-06  7557   0.302E-03
  27 F= -.83764654E+03 E0= -.83759875E+03  d E =-.232729E-02  mag=    -0.0000
       N       E                     dE             d eps       ncg     rms          rms(c)
DAV:   1    -0.828392830650E+03    0.40589E-04   -0.18217E-01 12236   0.438E-01    0.190E-01
RMM:   2    -0.828393655636E+03   -0.82499E-03   -0.93677E-03 13426   0.147E-01    0.741E-02
RMM:   3    -0.828393895961E+03   -0.24032E-03   -0.14493E-03 14302   0.559E-02    0.123E-01
RMM:   4    -0.828393724215E+03    0.17175E-03   -0.19973E-04 12548   0.293E-02    0.727E-02
RMM:   5    -0.828393711716E+03    0.12500E-04   -0.38006E-05 12594   0.941E-03    0.624E-02
RMM:   6    -0.828393701537E+03    0.10179E-04   -0.39453E-05 12117   0.999E-03    0.461E-02
RMM:   7    -0.828393710118E+03   -0.85809E-05   -0.12384E-04 13873   0.131E-02    0.231E-02
RMM:   8    -0.828393707718E+03    0.23996E-05   -0.15093E-05 10597   0.792E-03    0.170E-02
RMM:   9    -0.828393705148E+03    0.25702E-05   -0.30681E-06  8669   0.389E-03    0.139E-02
RMM:  10    -0.828393700873E+03    0.42750E-05   -0.92120E-06  9889   0.381E-03    0.767E-03
RMM:  11    -0.828393700676E+03    0.19674E-06   -0.68237E-06 10215   0.422E-03
  28 F= -.83764662E+03 E0= -.83759886E+03  d E =-.240317E-02  mag=    -0.0000
       N       E                     dE             d eps       ncg     rms          rms(c)
DAV:   1    -0.828393739902E+03   -0.39029E-04   -0.81235E-02 12348   0.294E-01    0.161E-01
RMM:   2    -0.828394157471E+03   -0.41757E-03   -0.47726E-03 13383   0.111E-01    0.572E-02
RMM:   3    -0.828394304103E+03   -0.14663E-03   -0.85473E-04 14252   0.465E-02    0.977E-02
RMM:   4    -0.828394199414E+03    0.10469E-03   -0.14607E-04 12275   0.263E-02    0.526E-02
RMM:   5    -0.828394191605E+03    0.78084E-05   -0.33833E-05 11691   0.103E-02    0.429E-02
RMM:   6    -0.828394184838E+03    0.67671E-05   -0.31457E-05 11917   0.106E-02    0.287E-02
RMM:   7    -0.828394189209E+03   -0.43708E-05   -0.53245E-05 13501   0.944E-03    0.188E-02
RMM:   8    -0.828394185483E+03    0.37256E-05   -0.68353E-06  9678   0.658E-03    0.110E-02
RMM:   9    -0.828394184129E+03    0.13547E-05   -0.11695E-06  7400   0.255E-03    0.881E-03
RMM:  10    -0.828394182801E+03    0.13271E-05   -0.38143E-06  8567   0.320E-03    0.652E-03
RMM:  11    -0.828394182640E+03    0.16124E-06   -0.47142E-06  9037   0.346E-03
  29 F= -.83764748E+03 E0= -.83759969E+03  d E =-.858766E-03  mag=    -0.0000
       N       E                     dE             d eps       ncg     rms          rms(c)
DAV:   1    -0.828391432174E+03    0.27506E-02   -0.56157E-01 11960   0.772E-01    0.426E-01
RMM:   2    -0.828394315301E+03   -0.28831E-02   -0.32764E-02 13701   0.283E-01    0.142E-01
RMM:   3    -0.828395224834E+03   -0.90953E-03   -0.51868E-03 14608   0.106E-01    0.236E-01
RMM:   4    -0.828394587363E+03    0.63747E-03   -0.77239E-04 13014   0.583E-02    0.136E-01
RMM:   5    -0.828394509652E+03    0.77711E-04   -0.17381E-04 13519   0.226E-02    0.101E-01
RMM:   6    -0.828394497409E+03    0.12242E-04   -0.27621E-04 13361   0.299E-02    0.741E-02
RMM:   7    -0.828394504989E+03   -0.75800E-05   -0.28891E-04 13930   0.275E-02    0.469E-02
RMM:   8    -0.828394483173E+03    0.21817E-04   -0.46772E-05 11152   0.152E-02    0.289E-02
RMM:   9    -0.828394472798E+03    0.10374E-04   -0.98537E-06 10504   0.600E-03    0.213E-02
RMM:  10    -0.828394463094E+03    0.97042E-05   -0.51800E-05 12969   0.694E-03    0.103E-02
RMM:  11    -0.828394463195E+03   -0.10090E-06   -0.80680E-06 10080   0.682E-03
  30 F= -.83764875E+03 E0= -.83760090E+03  d E =-.213469E-02  mag=    -0.0000
       N       E                     dE             d eps       ncg     rms          rms(c)
DAV:   1    -0.828393963400E+03    0.49969E-03   -0.54502E-02 12584   0.241E-01    0.134E-01
RMM:   2    -0.828394245383E+03   -0.28198E-03   -0.31780E-03 13269   0.929E-02    0.456E-02
RMM:   3    -0.828394360770E+03   -0.11539E-03   -0.61648E-04 14195   0.397E-02    0.856E-02
RMM:   4    -0.828394275180E+03    0.85590E-04   -0.11053E-04 12084   0.228E-02    0.425E-02
RMM:   5    -0.828394269886E+03    0.52946E-05   -0.25333E-05 11696   0.791E-03    0.345E-02
RMM:   6    -0.828394266407E+03    0.34782E-05   -0.21954E-05 11574   0.877E-03    0.254E-02
RMM:   7    -0.828394268255E+03   -0.18477E-05   -0.40866E-05 13010   0.926E-03    0.147E-02
RMM:   8    -0.828394266563E+03    0.16926E-05   -0.56155E-06  9493   0.576E-03    0.105E-02
RMM:   9    -0.828394265562E+03    0.10005E-05   -0.10407E-06  7375   0.259E-03    0.772E-03
RMM:  10    -0.828394264842E+03    0.72016E-06   -0.20409E-06  7733   0.254E-03
  31 F= -.83764887E+03 E0= -.83760099E+03  d E =-.224846E-02  mag=    -0.0000
