  140  140 1000    2
  0.8622651E+02  0.2626650E-08  0.2626830E-08  0.2020180E-08  0.5000000E-15
  1.000000000000000E-004
  CAR 
 membrane                                
    868      5    590
