 running on   48 total cores
 distrk:  each k-point on   48 cores,    1 groups
 distr:  one band on   24 cores,    2 groups
 using from now: INCAR     
 vasp.5.4.4.18Apr17-6-g9f103f2a35 (build Nov 10 2019 13:41:14) complex          
  
 POSCAR found type information on POSCAR  C  Al S  Cl Cu
 POSCAR found :  5 types and     140 ions
 scaLAPACK will be used

 ----------------------------------------------------------------------------- 
|                                                                             |
|           W    W    AA    RRRRR   N    N  II  N    N   GGGG   !!!           |
|           W    W   A  A   R    R  NN   N  II  NN   N  G    G  !!!           |
|           W    W  A    A  R    R  N N  N  II  N N  N  G       !!!           |
|           W WW W  AAAAAA  RRRRR   N  N N  II  N  N N  G  GGG   !            |
|           WW  WW  A    A  R   R   N   NN  II  N   NN  G    G                |
|           W    W  A    A  R    R  N    N  II  N    N   GGGG   !!!           |
|                                                                             |
|      For optimal performance we recommend to set                            |
|        NCORE= 4 - approx SQRT( number of cores)                             |
|      NCORE specifies how many cores store one orbital (NPAR=cpu/NCORE).     |
|      This setting can  greatly improve the performance of VASP for DFT.     |
|      The default,   NCORE=1            might be grossly inefficient         |
|      on modern multi-core architectures or massively parallel machines.     |
|      Do your own testing !!!!                                               |
|      Unfortunately you need to use the default for GW and RPA calculations. |
|      (for HF NCORE is supported but not extensively tested yet)             |
|                                                                             |
 ----------------------------------------------------------------------------- 


 ----------------------------------------------------------------------------- 
|                                                                             |
|  ADVICE TO THIS USER RUNNING 'VASP/VAMP'   (HEAR YOUR MASTER'S VOICE ...):  |
|                                                                             |
|      You have a (more or less) 'large supercell' and for larger cells       |
|      it might be more efficient to use real space projection opertators     |
|      So try LREAL= Auto  in the INCAR   file.                               |
|      Mind:          For very  accurate calculation you might also keep the  |
|      reciprocal projection scheme          (i.e. LREAL=.FALSE.)             |
|                                                                             |
 ----------------------------------------------------------------------------- 

 LDA part: xc-table for Pade appr. of Perdew
 POSCAR found type information on POSCAR  C  Al S  Cl Cu
 POSCAR found :  5 types and     140 ions
 POSCAR, INCAR and KPOINTS ok, starting setup
 FFT: planning ...
 WAVECAR not read
 entering main loop
       N       E                     dE             d eps       ncg     rms          rms(c)
DAV:   1     0.783942896523E+04    0.78394E+04   -0.27146E+05 12032   0.105E+03
DAV:   2     0.101111044473E+04   -0.68283E+04   -0.58674E+04 14752   0.253E+02
DAV:   3    -0.736492376512E+03   -0.17476E+04   -0.17163E+04 17424   0.144E+02
DAV:   4    -0.903526610221E+03   -0.16703E+03   -0.16088E+03 19264   0.620E+01
DAV:   5    -0.909955404655E+03   -0.64288E+01   -0.59889E+01 19992   0.139E+01    0.126E+02
RMM:   6    -0.866054443355E+03    0.43901E+02   -0.29015E+03 14064   0.116E+02    0.107E+02
RMM:   7    -0.590243774177E+03    0.27581E+03   -0.68215E+02 12151   0.651E+01    0.492E+01
RMM:   8    -0.651015352597E+03   -0.60772E+02   -0.44731E+02 13338   0.418E+01    0.556E+01
RMM:   9    -0.608913907278E+03    0.42101E+02   -0.49203E+01 12852   0.168E+01    0.302E+01
RMM:  10    -0.629895503034E+03   -0.20982E+02   -0.26729E+01 12316   0.127E+01    0.166E+01
RMM:  11    -0.688272076091E+03   -0.58377E+02   -0.34275E+01 12298   0.108E+01    0.146E+01
RMM:  12    -0.724613114882E+03   -0.36341E+02   -0.17765E+01 12716   0.583E+00    0.119E+01
RMM:  13    -0.768605393105E+03   -0.43992E+02   -0.29645E+01 12475   0.719E+00    0.761E+00
RMM:  14    -0.790563195012E+03   -0.21958E+02   -0.13492E+01 13008   0.519E+00    0.957E+00
RMM:  15    -0.800811788949E+03   -0.10249E+02   -0.52752E+00 12569   0.283E+00    0.827E+00
RMM:  16    -0.807562085825E+03   -0.67503E+01   -0.28443E+00 12376   0.260E+00    0.586E+00
RMM:  17    -0.814998824948E+03   -0.74367E+01   -0.41367E+00 12337   0.268E+00    0.368E+00
RMM:  18    -0.818768708785E+03   -0.37699E+01   -0.16175E+00 12907   0.174E+00    0.289E+00
RMM:  19    -0.822570454087E+03   -0.38017E+01   -0.79666E-01 13418   0.118E+00    0.224E+00
RMM:  20    -0.824131576737E+03   -0.15611E+01   -0.27200E-01 13360   0.719E-01    0.168E+00
RMM:  21    -0.824689627295E+03   -0.55805E+00   -0.12039E-01 13879   0.526E-01    0.995E-01
RMM:  22    -0.825404612601E+03   -0.71499E+00   -0.96564E-02 13183   0.455E-01    0.674E-01
RMM:  23    -0.825941859531E+03   -0.53725E+00   -0.43862E-02 14286   0.291E-01    0.537E-01
RMM:  24    -0.826686656167E+03   -0.74480E+00   -0.29100E-02 13014   0.230E-01    0.401E-01
RMM:  25    -0.827170169770E+03   -0.48351E+00   -0.15232E-02 13107   0.212E-01    0.318E-01
RMM:  26    -0.827631699982E+03   -0.46153E+00   -0.78340E-03 13136   0.138E-01    0.212E-01
RMM:  27    -0.827857177757E+03   -0.22548E+00   -0.27603E-03 13148   0.819E-02    0.188E-01
RMM:  28    -0.828068850130E+03   -0.21167E+00   -0.18867E-03 12773   0.667E-02    0.162E-01
RMM:  29    -0.828226453780E+03   -0.15760E+00   -0.15713E-03 12994   0.575E-02    0.103E-01
RMM:  30    -0.828347994809E+03   -0.12154E+00   -0.20835E-03 12728   0.540E-02    0.690E-02
RMM:  31    -0.828379507035E+03   -0.31512E-01   -0.97000E-04 13375   0.367E-02    0.504E-02
RMM:  32    -0.828386495046E+03   -0.69880E-02   -0.32621E-04 12840   0.223E-02    0.381E-02
RMM:  33    -0.828390247239E+03   -0.37522E-02   -0.20628E-04 12639   0.184E-02    0.336E-02
RMM:  34    -0.828391456888E+03   -0.12096E-02   -0.99771E-05 12073   0.136E-02    0.208E-02
RMM:  35    -0.828391895792E+03   -0.43890E-03   -0.45105E-05 11298   0.100E-02    0.977E-03
RMM:  36    -0.828392139552E+03   -0.24376E-03   -0.21413E-05 10656   0.711E-03    0.108E-02
RMM:  37    -0.828392395483E+03   -0.25593E-03   -0.15952E-05 10066   0.573E-03    0.668E-03
RMM:  38    -0.828392937982E+03   -0.54250E-03   -0.12266E-05  9876   0.482E-03    0.633E-03
RMM:  39    -0.828393195686E+03   -0.25770E-03   -0.40668E-06  8715   0.361E-03    0.395E-03
RMM:  40    -0.828393469748E+03   -0.27406E-03   -0.23159E-06  8053   0.262E-03    0.377E-03
RMM:  41    -0.828393615829E+03   -0.14608E-03   -0.96325E-07  7385   0.224E-03    0.296E-03
RMM:  42    -0.828393908249E+03   -0.29242E-03   -0.19099E-06  7882   0.213E-03    0.146E-03
RMM:  43    -0.828394063369E+03   -0.15512E-03   -0.10742E-06  7624   0.174E-03    0.118E-03
RMM:  44    -0.828394157083E+03   -0.93714E-04   -0.91076E-07  7404   0.148E-03    0.107E-03
RMM:  45    -0.828394213519E+03   -0.56435E-04   -0.80468E-07  7273   0.135E-03    0.818E-04
RMM:  46    -0.828394240222E+03   -0.26704E-04   -0.60399E-07  7047   0.115E-03    0.653E-04
RMM:  47    -0.828394256963E+03   -0.16740E-04   -0.44433E-07  6891   0.101E-03    0.530E-04
RMM:  48    -0.828394261330E+03   -0.43677E-05   -0.24500E-07  6165   0.835E-04    0.373E-04
RMM:  49    -0.828394263739E+03   -0.24085E-05   -0.15692E-07  5632   0.620E-04    0.226E-04
RMM:  50    -0.828394265087E+03   -0.13482E-05   -0.10068E-07  5345   0.535E-04    0.163E-04
RMM:  51    -0.828394265874E+03   -0.78665E-06   -0.60363E-08  4806   0.421E-04
   1 F= -.83764887E+03 E0= -.83760099E+03  d E =-.837649E+03  mag=     0.0002
 curvature:   0.00 expect dE= 0.000E+00 dE for cont linesearch  0.000E+00
 trial: gam= 0.00000 g(F)=  0.525E-02 g(S)=  0.000E+00 ort = 0.000E+00 (trialstep = 0.100E+01)
 search vector abs. value=  0.525E-02
 bond charge predicted
       N       E                     dE             d eps       ncg     rms          rms(c)
DAV:   1    -0.828392023041E+03    0.22420E-02   -0.65726E-01 13056   0.106E+00    0.572E-01
RMM:   2    -0.828394838662E+03   -0.28156E-02   -0.29476E-02 15187   0.286E-01    0.274E-01
RMM:   3    -0.828399140748E+03   -0.43021E-02   -0.63681E-03 13553   0.169E-01    0.583E-01
RMM:   4    -0.828393499382E+03    0.56414E-02   -0.33346E-03 13070   0.145E-01    0.115E-01
RMM:   5    -0.828393437703E+03    0.61679E-04   -0.62564E-04 13402   0.552E-02    0.883E-02
RMM:   6    -0.828393431890E+03    0.58128E-05   -0.41086E-04 13456   0.438E-02    0.745E-02
RMM:   7    -0.828393375454E+03    0.56437E-04   -0.16685E-04 13145   0.275E-02    0.355E-02
RMM:   8    -0.828393364850E+03    0.10604E-04   -0.45698E-05 11795   0.133E-02    0.208E-02
RMM:   9    -0.828393360121E+03    0.47289E-05   -0.12699E-05 10252   0.719E-03    0.912E-03
RMM:  10    -0.828393361726E+03   -0.16052E-05   -0.88554E-06 10349   0.607E-03    0.118E-02
RMM:  11    -0.828393361642E+03    0.84474E-07   -0.47033E-06  9300   0.463E-03
   2 F= -.83764798E+03 E0= -.83760010E+03  d E =0.890050E-03  mag=     0.0001
 trial-energy change:    0.000890  1 .order    0.000925   -0.005248    0.007098
 step:   0.4292(harm=  0.4251)  dis= 0.00122  next Energy=  -837.649996 (dE=-0.113E-02)
 bond charge predicted
       N       E                     dE             d eps       ncg     rms          rms(c)
DAV:   1    -0.828394935467E+03   -0.15737E-02   -0.21352E-01 12912   0.607E-01    0.326E-01
RMM:   2    -0.828395842206E+03   -0.90674E-03   -0.95998E-03 14893   0.168E-01    0.156E-01
RMM:   3    -0.828397252654E+03   -0.14104E-02   -0.21475E-03 13514   0.985E-02    0.333E-01
RMM:   4    -0.828395428936E+03    0.18237E-02   -0.10952E-03 13026   0.831E-02    0.683E-02
RMM:   5    -0.828395404139E+03    0.24797E-04   -0.21067E-04 13116   0.321E-02    0.509E-02
RMM:   6    -0.828395401695E+03    0.24441E-05   -0.13499E-04 13494   0.252E-02    0.412E-02
RMM:   7    -0.828395385631E+03    0.16064E-04   -0.57727E-05 12627   0.163E-02    0.198E-02
RMM:   8    -0.828395383268E+03    0.23635E-05   -0.14815E-05 10512   0.766E-03    0.128E-02
RMM:   9    -0.828395381172E+03    0.20963E-05   -0.41797E-06  9096   0.452E-03    0.494E-03
RMM:  10    -0.828395381658E+03   -0.48614E-06   -0.27257E-06  8335   0.341E-03
   3 F= -.83764999E+03 E0= -.83760211E+03  d E =-.112511E-02  mag=     0.0000
 curvature:  -0.21 expect dE=-0.491E-03 dE for cont linesearch -0.421E-07
 trial: gam= 0.43422 g(F)=  0.231E-02 g(S)=  0.000E+00 ort = 0.322E-04 (trialstep = 0.886E+00)
 search vector abs. value=  0.333E-02
 bond charge predicted
       N       E                     dE             d eps       ncg     rms          rms(c)
DAV:   1    -0.828395707391E+03   -0.32622E-03   -0.32323E-01 12912   0.658E-01    0.283E-01
RMM:   2    -0.828396795053E+03   -0.10877E-02   -0.12521E-02 14322   0.182E-01    0.934E-02
RMM:   3    -0.828397098078E+03   -0.30303E-03   -0.15137E-03 14216   0.649E-02    0.156E-01
RMM:   4    -0.828396794717E+03    0.30336E-03   -0.34231E-04 12753   0.412E-02    0.752E-02
RMM:   5    -0.828396776899E+03    0.17818E-04   -0.11439E-04 12628   0.208E-02    0.616E-02
RMM:   6    -0.828396761945E+03    0.14954E-04   -0.14075E-04 13230   0.205E-02    0.351E-02
RMM:   7    -0.828396760922E+03    0.10232E-05   -0.65539E-05 13292   0.144E-02    0.190E-02
RMM:   8    -0.828396756772E+03    0.41503E-05   -0.11331E-05  9993   0.763E-03    0.135E-02
RMM:   9    -0.828396755060E+03    0.17112E-05   -0.45286E-06  9197   0.478E-03    0.918E-03
RMM:  10    -0.828396754764E+03    0.29682E-06   -0.93061E-06 10278   0.415E-03
   4 F= -.83765136E+03 E0= -.83760349E+03  d E =-.136807E-02  mag=     0.0000
 trial-energy change:   -0.001368  1 .order   -0.001354   -0.002060   -0.000648
 step:   1.2594(harm=  1.2921)  dis= 0.00466  next Energy=  -837.651498 (dE=-0.151E-02)
 bond charge predicted
       N       E                     dE             d eps       ncg     rms          rms(c)
DAV:   1    -0.828396733613E+03    0.21448E-04   -0.57749E-02 13088   0.278E-01    0.121E-01
RMM:   2    -0.828396943140E+03   -0.20953E-03   -0.23397E-03 14144   0.831E-02    0.460E-02
RMM:   3    -0.828397039147E+03   -0.96008E-04   -0.41564E-04 13285   0.390E-02    0.869E-02
RMM:   4    -0.828396943000E+03    0.96147E-04   -0.11096E-04 11945   0.243E-02    0.329E-02
RMM:   5    -0.828396940144E+03    0.28562E-05   -0.32972E-05 11373   0.952E-03    0.282E-02
RMM:   6    -0.828396935917E+03    0.42269E-05   -0.19514E-05 11601   0.738E-03    0.159E-02
RMM:   7    -0.828396937646E+03   -0.17289E-05   -0.18658E-05 11792   0.741E-03    0.128E-02
RMM:   8    -0.828396936309E+03    0.13374E-05   -0.48135E-06  9266   0.540E-03    0.666E-03
RMM:   9    -0.828396936005E+03    0.30365E-06   -0.11378E-06  7395   0.294E-03
   5 F= -.83765154E+03 E0= -.83760368E+03  d E =-.154296E-02  mag=     0.0000
 curvature:  -0.92 expect dE=-0.322E-02 dE for cont linesearch -0.575E-05
 trial: gam= 1.44625 g(F)=  0.351E-02 g(S)=  0.000E+00 ort = 0.144E-03 (trialstep = 0.294E+00)
 search vector abs. value=  0.109E-01
 bond charge predicted
       N       E                     dE             d eps       ncg     rms          rms(c)
DAV:   1    -0.828397453496E+03   -0.51719E-03   -0.10826E-01 12480   0.376E-01    0.158E-01
RMM:   2    -0.828397855147E+03   -0.40165E-03   -0.43859E-03 14194   0.104E-01    0.663E-02
RMM:   3    -0.828398068105E+03   -0.21296E-03   -0.60486E-04 13942   0.410E-02    0.126E-01
RMM:   4    -0.828397828218E+03    0.23989E-03   -0.17053E-04 12389   0.304E-02    0.453E-02
RMM:   5    -0.828397822453E+03    0.57649E-05   -0.36578E-05 12364   0.107E-02    0.361E-02
RMM:   6    -0.828397822630E+03   -0.17730E-06   -0.47690E-05 12306   0.118E-02    0.278E-02
RMM:   7    -0.828397820894E+03    0.17362E-05   -0.32256E-05 11764   0.109E-02    0.152E-02
RMM:   8    -0.828397819023E+03    0.18705E-05   -0.59690E-06  9681   0.508E-03    0.992E-03
RMM:   9    -0.828397817740E+03    0.12829E-05   -0.15446E-06  7644   0.336E-03    0.578E-03
RMM:  10    -0.828397817344E+03    0.39664E-06   -0.23239E-06  7784   0.247E-03
   6 F= -.83765247E+03 E0= -.83760461E+03  d E =-.938134E-03  mag=     0.0000
 trial-energy change:   -0.000938  1 .order   -0.000930   -0.001092   -0.000769
 step:   0.7950(harm=  0.9931)  dis= 0.00614  next Energy=  -837.653169 (dE=-0.163E-02)
 bond charge predicted
       N       E                     dE             d eps       ncg     rms          rms(c)
DAV:   1    -0.828397562024E+03    0.25572E-03   -0.31588E-01 12336   0.643E-01    0.271E-01
RMM:   2    -0.828398732081E+03   -0.11701E-02   -0.12629E-02 14262   0.175E-01    0.113E-01
RMM:   3    -0.828399358874E+03   -0.62679E-03   -0.17050E-03 14140   0.688E-02    0.216E-01
RMM:   4    -0.828398648049E+03    0.71082E-03   -0.49988E-04 12863   0.514E-02    0.774E-02
RMM:   5    -0.828398630978E+03    0.17071E-04   -0.10515E-04 13349   0.180E-02    0.614E-02
RMM:   6    -0.828398628817E+03    0.21617E-05   -0.15221E-04 13154   0.200E-02    0.449E-02
RMM:   7    -0.828398624583E+03    0.42331E-05   -0.85092E-05 12538   0.180E-02    0.251E-02
RMM:   8    -0.828398618336E+03    0.62470E-05   -0.15507E-05 10675   0.756E-03    0.162E-02
RMM:   9    -0.828398614983E+03    0.33531E-05   -0.42601E-06  9182   0.487E-03    0.988E-03
RMM:  10    -0.828398613562E+03    0.14214E-05   -0.77408E-06  9383   0.371E-03    0.658E-03
RMM:  11    -0.828398613883E+03   -0.32100E-06   -0.60528E-06  9846   0.400E-03
   7 F= -.83765336E+03 E0= -.83760548E+03  d E =-.182649E-02  mag=     0.0000
 curvature:  -1.34 expect dE=-0.229E-02 dE for cont linesearch -0.744E-04
 ZBRENT: extrapolating
 opt :   1.0069  next Energy=  -837.653444 (dE=-0.191E-02)
 bond charge predicted
       N       E                     dE             d eps       ncg     rms          rms(c)
DAV:   1    -0.828398489989E+03    0.12357E-03   -0.56442E-02 12656   0.272E-01    0.114E-01
RMM:   2    -0.828398701066E+03   -0.21108E-03   -0.22629E-03 14024   0.776E-02    0.490E-02
RMM:   3    -0.828398821940E+03   -0.12087E-03   -0.35802E-04 13734   0.328E-02    0.948E-02
RMM:   4    -0.828398687739E+03    0.13420E-03   -0.10042E-04 12009   0.233E-02    0.327E-02
RMM:   5    -0.828398684846E+03    0.28931E-05   -0.22077E-05 11570   0.793E-03    0.265E-02
RMM:   6    -0.828398685045E+03   -0.19885E-06   -0.22261E-05 11307   0.851E-03    0.214E-02
RMM:   7    -0.828398684287E+03    0.75781E-06   -0.19593E-05 11454   0.805E-03    0.115E-02
RMM:   8    -0.828398683428E+03    0.85938E-06   -0.36038E-06  9008   0.430E-03
   8 F= -.83765347E+03 E0= -.83760557E+03  d E =-.193287E-02  mag=    -0.0000
 curvature:  -1.48 expect dE=-0.403E-02 dE for cont linesearch -0.455E-05
 trial: gam= 0.86106 g(F)=  0.272E-02 g(S)=  0.000E+00 ort = 0.183E-03 (trialstep = 0.428E+00)
 search vector abs. value=  0.111E-01
 bond charge predicted
       N       E                     dE             d eps       ncg     rms          rms(c)
DAV:   1    -0.828398455177E+03    0.22911E-03   -0.19192E-01 12144   0.476E-01    0.206E-01
RMM:   2    -0.828399283539E+03   -0.82836E-03   -0.96694E-03 14219   0.149E-01    0.815E-02
RMM:   3    -0.828399548768E+03   -0.26523E-03   -0.12359E-03 14274   0.541E-02    0.138E-01
RMM:   4    -0.828399302740E+03    0.24603E-03   -0.23638E-04 12607   0.331E-02    0.689E-02
RMM:   5    -0.828399289019E+03    0.13721E-04   -0.58071E-05 12368   0.143E-02    0.569E-02
RMM:   6    -0.828399280318E+03    0.87010E-05   -0.93804E-05 13042   0.150E-02    0.337E-02
RMM:   7    -0.828399286522E+03   -0.62041E-05   -0.68365E-05 13250   0.133E-02    0.228E-02
RMM:   8    -0.828399280968E+03    0.55537E-05   -0.10351E-05 10133   0.705E-03    0.149E-02
RMM:   9    -0.828399278303E+03    0.26651E-05   -0.29143E-06  8795   0.413E-03    0.103E-02
RMM:  10    -0.828399276386E+03    0.19172E-05   -0.13636E-05 10713   0.405E-03    0.583E-03
RMM:  11    -0.828399276494E+03   -0.10802E-06   -0.30239E-06  8087   0.381E-03
   9 F= -.83765439E+03 E0= -.83760649E+03  d E =-.925176E-03  mag=    -0.0000
 trial-energy change:   -0.000925  1 .order   -0.000913   -0.001231   -0.000595
 step:   0.7593(harm=  0.8278)  dis= 0.00678  next Energy=  -837.654630 (dE=-0.116E-02)
 bond charge predicted
       N       E                     dE             d eps       ncg     rms          rms(c)
DAV:   1    -0.828398863687E+03    0.41270E-03   -0.11580E-01 12208   0.369E-01    0.160E-01
RMM:   2    -0.828399366690E+03   -0.50300E-03   -0.56833E-03 14137   0.115E-01    0.670E-02
RMM:   3    -0.828399569825E+03   -0.20313E-03   -0.79338E-04 13931   0.470E-02    0.122E-01
RMM:   4    -0.828399370149E+03    0.19968E-03   -0.17191E-04 12340   0.292E-02    0.526E-02
RMM:   5    -0.828399361301E+03    0.88485E-05   -0.39955E-05 12674   0.101E-02    0.412E-02
RMM:   6    -0.828399361258E+03    0.43030E-07   -0.57077E-05 12540   0.125E-02    0.302E-02
RMM:   7    -0.828399360755E+03    0.50232E-06   -0.38307E-05 12441   0.109E-02    0.171E-02
RMM:   8    -0.828399357548E+03    0.32076E-05   -0.67535E-06  9637   0.592E-03    0.105E-02
RMM:   9    -0.828399356369E+03    0.11784E-05   -0.16693E-06  7706   0.331E-03    0.787E-03
RMM:  10    -0.828399355621E+03    0.74826E-06   -0.66033E-06  8930   0.335E-03
  10 F= -.83765473E+03 E0= -.83760681E+03  d E =-.126142E-02  mag=    -0.0000
 curvature:  -1.55 expect dE=-0.411E-02 dE for cont linesearch -0.246E-04
 trial: gam= 0.81425 g(F)=  0.265E-02 g(S)=  0.000E+00 ort = 0.420E-03 (trialstep = 0.494E+00)
 search vector abs. value=  0.107E-01
 bond charge predicted
       N       E                     dE             d eps       ncg     rms          rms(c)
DAV:   1    -0.828398944536E+03    0.41183E-03   -0.22991E-01 12112   0.495E-01    0.245E-01
RMM:   2    -0.828400082759E+03   -0.11382E-02   -0.12445E-02 13867   0.171E-01    0.108E-01
RMM:   3    -0.828400630793E+03   -0.54803E-03   -0.20016E-03 13958   0.768E-02    0.203E-01
RMM:   4    -0.828400068654E+03    0.56214E-03   -0.46835E-04 12835   0.492E-02    0.801E-02
RMM:   5    -0.828400054398E+03    0.14256E-04   -0.99482E-05 13484   0.149E-02    0.684E-02
RMM:   6    -0.828400040645E+03    0.13753E-04   -0.73634E-05 12488   0.148E-02    0.477E-02
RMM:   7    -0.828400049099E+03   -0.84538E-05   -0.11422E-04 13837   0.153E-02    0.311E-02
RMM:   8    -0.828400039851E+03    0.92479E-05   -0.22056E-05 10694   0.103E-02    0.171E-02
RMM:   9    -0.828400036779E+03    0.30726E-05   -0.50571E-06  9349   0.499E-03    0.120E-02
RMM:  10    -0.828400034577E+03    0.22023E-05   -0.64942E-06  9951   0.432E-03    0.102E-02
RMM:  11    -0.828400033835E+03    0.74138E-06   -0.70248E-06 10505   0.450E-03
  11 F= -.83765599E+03 E0= -.83760802E+03  d E =-.125855E-02  mag=    -0.0000
 trial-energy change:   -0.001259  1 .order   -0.001216   -0.001479   -0.000952
 step:   0.9533(harm=  1.3862)  dis= 0.00875  next Energy=  -837.656465 (dE=-0.174E-02)
 bond charge predicted
       N       E                     dE             d eps       ncg     rms          rms(c)
DAV:   1    -0.828399260614E+03    0.77396E-03   -0.19874E-01 12112   0.460E-01    0.228E-01
RMM:   2    -0.828400239021E+03   -0.97841E-03   -0.10760E-02 13990   0.157E-01    0.964E-02
RMM:   3    -0.828400679179E+03   -0.44016E-03   -0.15965E-03 13995   0.667E-02    0.181E-01
RMM:   4    -0.828400227677E+03    0.45150E-03   -0.36208E-04 12765   0.435E-02    0.740E-02
RMM:   5    -0.828400212955E+03    0.14722E-04   -0.71799E-05 13517   0.125E-02    0.607E-02
RMM:   6    -0.828400208118E+03    0.48372E-05   -0.77190E-05 12829   0.140E-02    0.440E-02
RMM:   7    -0.828400209525E+03   -0.14070E-05   -0.82295E-05 13125   0.155E-02    0.281E-02
RMM:   8    -0.828400202488E+03    0.70371E-05   -0.19331E-05 10588   0.943E-03    0.152E-02
RMM:   9    -0.828400200444E+03    0.20438E-05   -0.47770E-06  9293   0.503E-03    0.109E-02
RMM:  10    -0.828400198547E+03    0.18973E-05   -0.67694E-06  9667   0.390E-03    0.798E-03
RMM:  11    -0.828400198373E+03    0.17379E-06   -0.42010E-06  9317   0.407E-03
  12 F= -.83765669E+03 E0= -.83760868E+03  d E =-.196306E-02  mag=     0.0000
 curvature:  -1.89 expect dE=-0.361E-02 dE for cont linesearch -0.159E-03
 ZBRENT: increasing intervall
 opt :   1.8721  next Energy=  -837.656663 (dE=-0.193E-02)
 bond charge predicted
       N       E                     dE             d eps       ncg     rms          rms(c)
DAV:   1    -0.828395428879E+03    0.47697E-02   -0.79363E-01 12044   0.920E-01    0.452E-01
RMM:   2    -0.828399351857E+03   -0.39230E-02   -0.43111E-02 14041   0.313E-01    0.191E-01
RMM:   3    -0.828401099678E+03   -0.17478E-02   -0.62116E-03 14063   0.131E-01    0.361E-01
RMM:   4    -0.828399291335E+03    0.18083E-02   -0.13995E-03 12910   0.857E-02    0.147E-01
RMM:   5    -0.828399230996E+03    0.60339E-04   -0.28052E-04 14396   0.247E-02    0.120E-01
RMM:   6    -0.828399213504E+03    0.17492E-04   -0.32879E-04 13530   0.270E-02    0.833E-02
RMM:   7    -0.828399217775E+03   -0.42710E-05   -0.28222E-04 13585   0.297E-02    0.571E-02
RMM:   8    -0.828399185111E+03    0.32664E-04   -0.73445E-05 12090   0.178E-02    0.279E-02
RMM:   9    -0.828399178423E+03    0.66884E-05   -0.18531E-05 10239   0.949E-03    0.216E-02
RMM:  10    -0.828399169546E+03    0.88761E-05   -0.29134E-05 12177   0.733E-03    0.137E-02
RMM:  11    -0.828399168993E+03    0.55309E-06   -0.12384E-05 10734   0.680E-03    0.796E-03
RMM:  12    -0.828399169238E+03   -0.24466E-06   -0.26541E-06  8031   0.315E-03
  13 F= -.83765674E+03 E0= -.83760863E+03  d E =-.201489E-02  mag=    -0.0000
 curvature:   0.35 expect dE= 0.308E-02 dE for cont linesearch  0.337E-04
 ZBRENT: bracketing found
 ZBRENT: interpolating
 opt :   1.3970  next Energy=  -837.656903 (dE=-0.217E-02)
 bond charge predicted
       N       E                     dE             d eps       ncg     rms          rms(c)
DAV:   1    -0.828398930663E+03    0.23833E-03   -0.21168E-01 12112   0.476E-01    0.237E-01
RMM:   2    -0.828399954470E+03   -0.10238E-02   -0.11400E-02 14104   0.159E-01    0.964E-02
RMM:   3    -0.828400380338E+03   -0.42587E-03   -0.15934E-03 14058   0.644E-02    0.175E-01
RMM:   4    -0.828399958562E+03    0.42178E-03   -0.35020E-04 12777   0.421E-02    0.769E-02
RMM:   5    -0.828399942086E+03    0.16476E-04   -0.66055E-05 13359   0.125E-02    0.617E-02
RMM:   6    -0.828399941278E+03    0.80804E-06   -0.10499E-04 13279   0.150E-02    0.413E-02
RMM:   7    -0.828399944966E+03   -0.36878E-05   -0.73888E-05 12725   0.153E-02    0.277E-02
RMM:   8    -0.828399936958E+03    0.80075E-05   -0.15952E-05 10393   0.864E-03    0.148E-02
RMM:   9    -0.828399934598E+03    0.23607E-05   -0.41709E-06  9200   0.488E-03    0.109E-02
RMM:  10    -0.828399932045E+03    0.25524E-05   -0.12219E-05  9794   0.362E-03    0.536E-03
RMM:  11    -0.828399932136E+03   -0.90105E-07   -0.25981E-06  7953   0.392E-03
  14 F= -.83765695E+03 E0= -.83760888E+03  d E =-.221860E-02  mag=    -0.0000
 curvature:  -2.18 expect dE=-0.943E-02 dE for cont linesearch -0.956E-05
 trial: gam= 1.92811 g(F)=  0.432E-02 g(S)=  0.000E+00 ort = 0.216E-03 (trialstep = 0.161E+00)
 search vector abs. value=  0.449E-01
 bond charge predicted
       N       E                     dE             d eps       ncg     rms          rms(c)
DAV:   1    -0.828399727258E+03    0.20479E-03   -0.10031E-01 12336   0.323E-01    0.147E-01
RMM:   2    -0.828400199192E+03   -0.47193E-03   -0.53401E-03 13761   0.110E-01    0.634E-02
RMM:   3    -0.828400358516E+03   -0.15932E-03   -0.81194E-04 14058   0.440E-02    0.107E-01
RMM:   4    -0.828400214533E+03    0.14398E-03   -0.13843E-04 12347   0.261E-02    0.536E-02
RMM:   5    -0.828400208034E+03    0.64987E-05   -0.28406E-05 11822   0.860E-03    0.467E-02
RMM:   6    -0.828400201788E+03    0.62459E-05   -0.18597E-05 11433   0.716E-03    0.352E-02
RMM:   7    -0.828400204952E+03   -0.31633E-05   -0.62599E-05 13340   0.965E-03    0.183E-02
RMM:   8    -0.828400203394E+03    0.15577E-05   -0.10787E-05 10440   0.692E-03    0.129E-02
RMM:   9    -0.828400201784E+03    0.16102E-05   -0.23923E-06  8206   0.359E-03    0.932E-03
RMM:  10    -0.828400199841E+03    0.19422E-05   -0.33616E-06  8136   0.318E-03    0.656E-03
RMM:  11    -0.828400199417E+03    0.42433E-06   -0.43897E-06  8881   0.359E-03
  15 F= -.83765761E+03 E0= -.83760952E+03  d E =-.657777E-03  mag=    -0.0000
 trial-energy change:   -0.000658  1 .order   -0.000662   -0.000760   -0.000564
 step:   0.6207(harm=  0.6207)  dis= 0.01210  next Energy=  -837.658418 (dE=-0.147E-02)
 bond charge predicted
       N       E                     dE             d eps       ncg     rms          rms(c)
DAV:   1    -0.828396347569E+03    0.38523E-02   -0.82626E-01 12020   0.924E-01    0.423E-01
RMM:   2    -0.828400282260E+03   -0.39347E-02   -0.43922E-02 13814   0.315E-01    0.179E-01
RMM:   3    -0.828401665799E+03   -0.13835E-02   -0.65553E-03 14211   0.125E-01    0.314E-01
RMM:   4    -0.828400385971E+03    0.12798E-02   -0.11336E-03 12920   0.748E-02    0.153E-01
RMM:   5    -0.828400332365E+03    0.53605E-04   -0.23263E-04 14297   0.231E-02    0.132E-01
RMM:   6    -0.828400275270E+03    0.57095E-04   -0.17226E-04 13098   0.210E-02    0.981E-02
RMM:   7    -0.828400291218E+03   -0.15947E-04   -0.47150E-04 14255   0.290E-02    0.539E-02
RMM:   8    -0.828400279456E+03    0.11762E-04   -0.92898E-05 12493   0.184E-02    0.354E-02
RMM:   9    -0.828400267464E+03    0.11992E-04   -0.20723E-05 10841   0.898E-03    0.261E-02
RMM:  10    -0.828400252534E+03    0.14929E-04   -0.31815E-05 12452   0.743E-03    0.163E-02
RMM:  11    -0.828400250540E+03    0.19946E-05   -0.23934E-05 12018   0.804E-03    0.103E-02
RMM:  12    -0.828400250302E+03    0.23782E-06   -0.42497E-06  9148   0.398E-03
  16 F= -.83765878E+03 E0= -.83761062E+03  d E =-.182921E-02  mag=    -0.0000
 curvature:  -2.95 expect dE=-0.752E-02 dE for cont linesearch -0.985E-04
 ZBRENT: increasing intervall
 opt :   1.5409  next Energy=  -837.657805 (dE=-0.857E-03)
 bond charge predicted
       N       E                     dE             d eps       ncg     rms          rms(c)
DAV:   1    -0.828381406039E+03    0.18845E-01   -0.32995E+00 11960   0.185E+00    0.840E-01
RMM:   2    -0.828397373555E+03   -0.15968E-01   -0.17721E-01 13668   0.645E-01    0.365E-01
RMM:   3    -0.828403490578E+03   -0.61170E-02   -0.28288E-02 14249   0.267E-01    0.661E-01
RMM:   4    -0.828397738715E+03    0.57519E-02   -0.50586E-03 12954   0.159E-01    0.307E-01
RMM:   5    -0.828397536335E+03    0.20238E-03   -0.10959E-03 14929   0.488E-02    0.268E-01
RMM:   6    -0.828397293141E+03    0.24319E-03   -0.58989E-04 13269   0.394E-02    0.203E-01
RMM:   7    -0.828397313364E+03   -0.20223E-04   -0.19158E-03 14326   0.594E-02    0.111E-01
RMM:   8    -0.828397290742E+03    0.22621E-04   -0.46096E-04 13405   0.390E-02    0.748E-02
RMM:   9    -0.828397237957E+03    0.52785E-04   -0.10067E-04 12715   0.187E-02    0.547E-02
RMM:  10    -0.828397172874E+03    0.65083E-04   -0.11778E-04 13345   0.137E-02    0.301E-02
RMM:  11    -0.828397166767E+03    0.61066E-05   -0.10717E-04 13795   0.146E-02    0.210E-02
RMM:  12    -0.828397164866E+03    0.19006E-05   -0.15398E-05 10770   0.800E-03    0.968E-03
RMM:  13    -0.828397164881E+03   -0.14305E-07   -0.23178E-06  8168   0.361E-03
  17 F= -.83765794E+03 E0= -.83760965E+03  d E =-.995578E-03  mag=    -0.0000
 curvature:  29.08 expect dE= 0.351E+00 dE for cont linesearch  0.697E-02
 ZBRENT: bracketing found
 ZBRENT: interpolating
 opt :   0.8710  next Energy=  -837.658931 (dE=-0.198E-02)
 bond charge predicted
       N       E                     dE             d eps       ncg     rms          rms(c)
DAV:   1    -0.828391592647E+03    0.55722E-02   -0.17497E+00 11972   0.134E+00    0.637E-01
RMM:   2    -0.828399837511E+03   -0.82449E-02   -0.92233E-02 13819   0.455E-01    0.261E-01
RMM:   3    -0.828402507130E+03   -0.26696E-02   -0.13510E-02 14222   0.176E-01    0.432E-01
RMM:   4    -0.828400125978E+03    0.23812E-02   -0.22723E-03 12956   0.104E-01    0.227E-01
RMM:   5    -0.828400011143E+03    0.11484E-03   -0.45143E-04 14360   0.339E-02    0.197E-01
RMM:   6    -0.828399878133E+03    0.13301E-03   -0.40786E-04 13413   0.308E-02    0.140E-01
RMM:   7    -0.828399922484E+03   -0.44351E-04   -0.10466E-03 14498   0.403E-02    0.671E-02
RMM:   8    -0.828399902378E+03    0.20106E-04   -0.14436E-04 12751   0.234E-02    0.492E-02
RMM:   9    -0.828399879895E+03    0.22483E-04   -0.33539E-05 11388   0.114E-02    0.388E-02
RMM:  10    -0.828399841545E+03    0.38350E-04   -0.97566E-05 13296   0.110E-02    0.185E-02
RMM:  11    -0.828399839485E+03    0.20601E-05   -0.41312E-05 12412   0.109E-02    0.113E-02
RMM:  12    -0.828399839214E+03    0.27097E-06   -0.59261E-06  9869   0.463E-03
  18 F= -.83765898E+03 E0= -.83761079E+03  d E =-.202915E-02  mag=    -0.0000
 curvature:  -0.64 expect dE=-0.238E-02 dE for cont linesearch -0.180E-05
 trial: gam= 0.67458 g(F)=  0.372E-02 g(S)=  0.000E+00 ort = 0.356E-03 (trialstep = 0.303E+00)
 search vector abs. value=  0.247E-01
 bond charge predicted
       N       E                     dE             d eps       ncg     rms          rms(c)
DAV:   1    -0.828399397646E+03    0.44184E-03   -0.17840E-01 12344   0.437E-01    0.198E-01
RMM:   2    -0.828400263794E+03   -0.86615E-03   -0.99889E-03 13732   0.160E-01    0.712E-02
RMM:   3    -0.828400477942E+03   -0.21415E-03   -0.16056E-03 14416   0.571E-02    0.112E-01
RMM:   4    -0.828400362158E+03    0.11578E-03   -0.19169E-04 12408   0.289E-02    0.731E-02
RMM:   5    -0.828400345420E+03    0.16738E-04   -0.44138E-05 12490   0.110E-02    0.600E-02
RMM:   6    -0.828400337123E+03    0.82965E-05   -0.72265E-05 12886   0.139E-02    0.413E-02
RMM:   7    -0.828400347507E+03   -0.10384E-04   -0.12694E-04 14225   0.157E-02    0.260E-02
RMM:   8    -0.828400341068E+03    0.64393E-05   -0.13992E-05 10217   0.870E-03    0.192E-02
RMM:   9    -0.828400336604E+03    0.44643E-05   -0.34075E-06  8994   0.406E-03    0.144E-02
RMM:  10    -0.828400332199E+03    0.44047E-05   -0.19223E-05 12237   0.494E-03    0.880E-03
RMM:  11    -0.828400331760E+03    0.43910E-06   -0.58820E-06 10069   0.497E-03
  19 F= -.83765999E+03 E0= -.83761174E+03  d E =-.101125E-02  mag=    -0.0000
 trial-energy change:   -0.001011  1 .order   -0.000997   -0.001200   -0.000794
 step:   0.7007(harm=  0.8947)  dis= 0.01020  next Energy=  -837.660543 (dE=-0.157E-02)
 bond charge predicted
       N       E                     dE             d eps       ncg     rms          rms(c)
DAV:   1    -0.828398897989E+03    0.14342E-02   -0.30899E-01 12076   0.574E-01    0.263E-01
RMM:   2    -0.828400398628E+03   -0.15006E-02   -0.17229E-02 13824   0.208E-01    0.919E-02
RMM:   3    -0.828400757434E+03   -0.35881E-03   -0.26696E-03 14529   0.719E-02    0.144E-01
RMM:   4    -0.828400561152E+03    0.19628E-03   -0.30985E-04 12641   0.366E-02    0.945E-02
RMM:   5    -0.828400530210E+03    0.30942E-04   -0.73674E-05 12944   0.149E-02    0.764E-02
RMM:   6    -0.828400514362E+03    0.15848E-04   -0.12723E-04 13341   0.186E-02    0.517E-02
RMM:   7    -0.828400527673E+03   -0.13311E-04   -0.19090E-04 14278   0.189E-02    0.319E-02
RMM:   8    -0.828400518292E+03    0.93807E-05   -0.22007E-05 10592   0.111E-02    0.232E-02
RMM:   9    -0.828400511523E+03    0.67691E-05   -0.55985E-06  9946   0.455E-03    0.172E-02
RMM:  10    -0.828400505813E+03    0.57099E-05   -0.26614E-05 12618   0.592E-03    0.117E-02
RMM:  11    -0.828400504975E+03    0.83813E-06   -0.79940E-06 10478   0.578E-03
  20 F= -.83766085E+03 E0= -.83761253E+03  d E =-.187052E-02  mag=    -0.0000
 curvature:  -2.48 expect dE=-0.565E-02 dE for cont linesearch -0.166E-03
 ZBRENT: increasing intervall
 opt :   1.4968  next Energy=  -837.660802 (dE=-0.182E-02)
 bond charge predicted
       N       E                     dE             d eps       ncg     rms          rms(c)
DAV:   1    -0.828392814514E+03    0.76913E-02   -0.12349E+00 11960   0.115E+00    0.527E-01
RMM:   2    -0.828398851700E+03   -0.60372E-02   -0.69145E-02 13764   0.416E-01    0.188E-01
RMM:   3    -0.828400422608E+03   -0.15709E-02   -0.10886E-02 14555   0.149E-01    0.304E-01
RMM:   4    -0.828399485034E+03    0.93757E-03   -0.13544E-03 12945   0.767E-02    0.189E-01
RMM:   5    -0.828399363383E+03    0.12165E-03   -0.31481E-04 13750   0.296E-02    0.154E-01
RMM:   6    -0.828399286858E+03    0.76525E-04   -0.47161E-04 13691   0.361E-02    0.104E-01
RMM:   7    -0.828399341668E+03   -0.54810E-04   -0.80657E-04 14539   0.376E-02    0.642E-02
RMM:   8    -0.828399305929E+03    0.35739E-04   -0.88959E-05 11620   0.219E-02    0.469E-02
RMM:   9    -0.828399276951E+03    0.28978E-04   -0.24878E-05 12033   0.887E-03    0.342E-02
RMM:  10    -0.828399251840E+03    0.25111E-04   -0.11121E-04 13734   0.114E-02    0.196E-02
RMM:  11    -0.828399250452E+03    0.13879E-05   -0.23863E-05 11562   0.100E-02    0.866E-03
RMM:  12    -0.828399250416E+03    0.35914E-07   -0.30049E-06  8434   0.361E-03
  21 F= -.83766098E+03 E0= -.83761250E+03  d E =-.200167E-02  mag=    -0.0000
 curvature:   0.69 expect dE= 0.590E-02 dE for cont linesearch  0.439E-04
 ZBRENT: bracketing found
 ZBRENT: interpolating
 opt :   1.1032  next Energy=  -837.661226 (dE=-0.225E-02)
 bond charge predicted
       N       E                     dE             d eps       ncg     rms          rms(c)
DAV:   1    -0.828398560988E+03    0.68946E-03   -0.30159E-01 12032   0.567E-01    0.258E-01
RMM:   2    -0.828400031224E+03   -0.14702E-02   -0.16955E-02 13772   0.206E-01    0.932E-02
RMM:   3    -0.828400370722E+03   -0.33950E-03   -0.26272E-03 14546   0.705E-02    0.140E-01
RMM:   4    -0.828400192139E+03    0.17858E-03   -0.29027E-04 12704   0.353E-02    0.962E-02
RMM:   5    -0.828400164456E+03    0.27682E-04   -0.68463E-05 12688   0.147E-02    0.793E-02
RMM:   6    -0.828400147210E+03    0.17247E-04   -0.10983E-04 13205   0.173E-02    0.536E-02
RMM:   7    -0.828400164947E+03   -0.17737E-04   -0.20251E-04 14453   0.182E-02    0.309E-02
RMM:   8    -0.828400155865E+03    0.90821E-05   -0.21097E-05 10572   0.108E-02    0.237E-02
RMM:   9    -0.828400149132E+03    0.67332E-05   -0.63927E-06  9930   0.530E-03    0.180E-02
RMM:  10    -0.828400142226E+03    0.69061E-05   -0.30266E-05 12836   0.610E-03    0.944E-03
RMM:  11    -0.828400141934E+03    0.29222E-06   -0.61354E-06  9882   0.561E-03
  22 F= -.83766118E+03 E0= -.83761278E+03  d E =-.220585E-02  mag=    -0.0000
 curvature:  -3.87 expect dE=-0.171E-01 dE for cont linesearch -0.222E-04
 trial: gam= 1.15727 g(F)=  0.442E-02 g(S)=  0.000E+00 ort = 0.376E-03 (trialstep = 0.298E+00)
 search vector abs. value=  0.383E-01
 bond charge predicted
       N       E                     dE             d eps       ncg     rms          rms(c)
DAV:   1    -0.828399309092E+03    0.83313E-03   -0.25102E-01 12064   0.512E-01    0.229E-01
RMM:   2    -0.828400604720E+03   -0.12956E-02   -0.14573E-02 13491   0.193E-01    0.979E-02
RMM:   3    -0.828401129370E+03   -0.52465E-03   -0.26874E-03 14291   0.761E-02    0.182E-01
RMM:   4    -0.828400716360E+03    0.41301E-03   -0.39885E-04 12806   0.446E-02    0.906E-02
RMM:   5    -0.828400697048E+03    0.19311E-04   -0.79295E-05 13666   0.132E-02    0.771E-02
RMM:   6    -0.828400681256E+03    0.15793E-04   -0.70048E-05 12663   0.143E-02    0.573E-02
RMM:   7    -0.828400687501E+03   -0.62448E-05   -0.15541E-04 14042   0.177E-02    0.314E-02
RMM:   8    -0.828400684038E+03    0.34629E-05   -0.34432E-05 11875   0.114E-02    0.221E-02
RMM:   9    -0.828400680519E+03    0.35185E-05   -0.71163E-06  9802   0.556E-03    0.184E-02
RMM:  10    -0.828400673930E+03    0.65893E-05   -0.10155E-05 10729   0.421E-03    0.117E-02
RMM:  11    -0.828400672449E+03    0.14806E-05   -0.92298E-06 11207   0.507E-03    0.674E-03
RMM:  12    -0.828400672348E+03    0.10098E-06   -0.25213E-06  8090   0.286E-03
  23 F= -.83766238E+03 E0= -.83761390E+03  d E =-.119654E-02  mag=    -0.0000
 ZBRENT: can't locate minimum, use default step
 trial-energy change:   -0.001197  1 .order   -0.001204   -0.001446   -0.000963
 step:   1.1914(harm=  0.8921)  dis= 0.02166  next Energy=  -837.663731 (dE=-0.255E-02)
 bond charge predicted
       N       E                     dE             d eps       ncg     rms          rms(c)
DAV:   1    -0.828387863067E+03    0.12809E-01   -0.22656E+00 11960   0.154E+00    0.696E-01
RMM:   2    -0.828399607187E+03   -0.11744E-01   -0.13118E-01 13558   0.577E-01    0.292E-01
RMM:   3    -0.828404296863E+03   -0.46897E-02   -0.23399E-02 14359   0.226E-01    0.543E-01
RMM:   4    -0.828400563899E+03    0.37330E-02   -0.35429E-03 12924   0.132E-01    0.269E-01
RMM:   5    -0.828400382111E+03    0.18179E-03   -0.68143E-04 14935   0.374E-02    0.227E-01
RMM:   6    -0.828400239562E+03    0.14255E-03   -0.66711E-04 13496   0.417E-02    0.165E-01
RMM:   7    -0.828400295255E+03   -0.55694E-04   -0.12507E-03 14385   0.515E-02    0.100E-01
RMM:   8    -0.828400244715E+03    0.50540E-04   -0.31065E-04 13226   0.339E-02    0.667E-02
RMM:   9    -0.828400208705E+03    0.36009E-04   -0.69606E-05 12318   0.159E-02    0.528E-02
RMM:  10    -0.828400144786E+03    0.63919E-04   -0.10403E-04 13596   0.101E-02    0.259E-02
RMM:  11    -0.828400143377E+03    0.14088E-05   -0.54103E-05 13115   0.112E-02    0.223E-02
RMM:  12    -0.828400138455E+03    0.49219E-05   -0.14751E-05 11270   0.730E-03    0.787E-03
RMM:  13    -0.828400138611E+03   -0.15603E-06   -0.22461E-06  8069   0.345E-03
  24 F= -.83766388E+03 E0= -.83761516E+03  d E =-.269415E-02  mag=    -0.0000
 curvature:  -2.63 expect dE=-0.158E-01 dE for cont linesearch -0.394E-05
 trial: gam= 1.44247 g(F)=  0.601E-02 g(S)=  0.000E+00 ort =-0.240E-03 (trialstep = 0.215E+00)
 search vector abs. value=  0.850E-01
 bond charge predicted
       N       E                     dE             d eps       ncg     rms          rms(c)
DAV:   1    -0.828398826539E+03    0.13119E-02   -0.27963E-01 12032   0.529E-01    0.256E-01
RMM:   2    -0.828400301816E+03   -0.14753E-02   -0.16736E-02 13388   0.207E-01    0.957E-02
RMM:   3    -0.828400802966E+03   -0.50115E-03   -0.30430E-03 14451   0.774E-02    0.168E-01
RMM:   4    -0.828400474792E+03    0.32817E-03   -0.35509E-04 12818   0.405E-02    0.969E-02
RMM:   5    -0.828400450073E+03    0.24719E-04   -0.74470E-05 12931   0.140E-02    0.822E-02
RMM:   6    -0.828400430260E+03    0.19813E-04   -0.52993E-05 12504   0.128E-02    0.638E-02
RMM:   7    -0.828400439759E+03   -0.94984E-05   -0.23488E-04 14209   0.183E-02    0.328E-02
RMM:   8    -0.828400435118E+03    0.46404E-05   -0.33367E-05 11265   0.127E-02    0.239E-02
RMM:   9    -0.828400429880E+03    0.52379E-05   -0.72092E-06  9953   0.513E-03    0.196E-02
RMM:  10    -0.828400421893E+03    0.79876E-05   -0.16678E-05 11898   0.492E-03    0.922E-03
RMM:  11    -0.828400421927E+03   -0.34604E-07   -0.95138E-06 11101   0.511E-03
  25 F= -.83766498E+03 E0= -.83761619E+03  d E =-.110522E-02  mag=    -0.0000
 trial-energy change:   -0.001105  1 .order   -0.001037   -0.001216   -0.000859
 step:   0.3848(harm=  0.7324)  dis= 0.01043  next Energy=  -837.665357 (dE=-0.148E-02)
 bond charge predicted
       N       E                     dE             d eps       ncg     rms          rms(c)
DAV:   1    -0.828399395607E+03    0.10263E-02   -0.17591E-01 12044   0.420E-01    0.203E-01
RMM:   2    -0.828400336150E+03   -0.94054E-03   -0.10588E-02 13254   0.167E-01    0.784E-02
RMM:   3    -0.828400672058E+03   -0.33591E-03   -0.20378E-03 14381   0.662E-02    0.140E-01
RMM:   4    -0.828400444277E+03    0.22778E-03   -0.25910E-04 12638   0.350E-02    0.779E-02
RMM:   5    -0.828400430074E+03    0.14203E-04   -0.58995E-05 12524   0.122E-02    0.671E-02
RMM:   6    -0.828400416343E+03    0.13731E-04   -0.27006E-05 11869   0.924E-03    0.528E-02
RMM:   7    -0.828400422513E+03   -0.61700E-05   -0.15885E-04 14045   0.143E-02    0.275E-02
RMM:   8    -0.828400419332E+03    0.31809E-05   -0.24616E-05 11136   0.109E-02    0.199E-02
RMM:   9    -0.828400415954E+03    0.33783E-05   -0.51096E-06  9394   0.436E-03    0.163E-02
RMM:  10    -0.828400410980E+03    0.49738E-05   -0.79014E-06 10218   0.409E-03    0.100E-02
RMM:  11    -0.828400410372E+03    0.60828E-06   -0.10813E-05 11458   0.487E-03    0.542E-03
RMM:  12    -0.828400410560E+03   -0.18810E-06   -0.13634E-06  7455   0.259E-03
  26 F= -.83766563E+03 E0= -.83761678E+03  d E =-.174905E-02  mag=    -0.0000
 curvature:  -3.02 expect dE=-0.909E-02 dE for cont linesearch -0.307E-03
 ZBRENT: increasing intervall
 opt :   0.7250  next Energy=  -837.666264 (dE=-0.239E-02)
 bond charge predicted
       N       E                     dE             d eps       ncg     rms          rms(c)
DAV:   1    -0.828395769058E+03    0.46413E-02   -0.70219E-01 11960   0.838E-01    0.406E-01
RMM:   2    -0.828399508921E+03   -0.37399E-02   -0.42019E-02 13438   0.326E-01    0.157E-01
RMM:   3    -0.828400859215E+03   -0.13503E-02   -0.76821E-03 14414   0.126E-01    0.282E-01
RMM:   4    -0.828399901938E+03    0.95728E-03   -0.96292E-04 12957   0.673E-02    0.155E-01
RMM:   5    -0.828399844127E+03    0.57810E-04   -0.19730E-04 13926   0.221E-02    0.132E-01
RMM:   6    -0.828399791895E+03    0.52233E-04   -0.12984E-04 12923   0.199E-02    0.102E-01
RMM:   7    -0.828399812523E+03   -0.20629E-04   -0.59261E-04 14549   0.282E-02    0.519E-02
RMM:   8    -0.828399798313E+03    0.14211E-04   -0.82029E-05 12084   0.192E-02    0.384E-02
RMM:   9    -0.828399785645E+03    0.12668E-04   -0.18839E-05 10920   0.816E-03    0.316E-02
RMM:  10    -0.828399763535E+03    0.22110E-04   -0.40653E-05 13021   0.702E-03    0.150E-02
RMM:  11    -0.828399762632E+03    0.90266E-06   -0.23225E-05 12074   0.802E-03    0.112E-02
RMM:  12    -0.828399762251E+03    0.38085E-06   -0.47448E-06  9475   0.444E-03
  27 F= -.83766630E+03 E0= -.83761733E+03  d E =-.242203E-02  mag=    -0.0000
 curvature:  -6.28 expect dE=-0.239E-01 dE for cont linesearch -0.159E-04
 trial: gam= 0.42706 g(F)=  0.381E-02 g(S)=  0.000E+00 ort = 0.464E-03 (trialstep = 0.317E+00)
 search vector abs. value=  0.197E-01
 bond charge predicted
       N       E                     dE             d eps       ncg     rms          rms(c)
DAV:   1    -0.828399392254E+03    0.37038E-03   -0.13781E-01 12136   0.377E-01    0.197E-01
RMM:   2    -0.828400239035E+03   -0.84678E-03   -0.85804E-03 13346   0.149E-01    0.103E-01
RMM:   3    -0.828400745918E+03   -0.50688E-03   -0.18273E-03 14188   0.702E-02    0.193E-01
RMM:   4    -0.828400197521E+03    0.54840E-03   -0.40463E-04 12775   0.468E-02    0.707E-02
RMM:   5    -0.828400187285E+03    0.10235E-04   -0.71180E-05 13295   0.132E-02    0.610E-02
RMM:   6    -0.828400176640E+03    0.10645E-04   -0.33362E-05 11969   0.105E-02    0.459E-02
RMM:   7    -0.828400179493E+03   -0.28527E-05   -0.79171E-05 13413   0.140E-02    0.287E-02
RMM:   8    -0.828400178594E+03    0.89924E-06   -0.29875E-05 12262   0.940E-03    0.195E-02
RMM:   9    -0.828400174444E+03    0.41500E-05   -0.60683E-06  9533   0.568E-03    0.122E-02
RMM:  10    -0.828400172240E+03    0.22040E-05   -0.30461E-06  8428   0.348E-03    0.892E-03
RMM:  11    -0.828400171608E+03    0.63152E-06   -0.72456E-06 10343   0.414E-03
  28 F= -.83766749E+03 E0= -.83761845E+03  d E =-.118984E-02  mag=    -0.0000
 ZBRENT: can't locate minimum, use default step
 trial-energy change:   -0.001190  1 .order   -0.001144   -0.001270   -0.001018
 step:   1.2671(harm=  1.5955)  dis= 0.01531  next Energy=  -837.669498 (dE=-0.320E-02)
 bond charge predicted
       N       E                     dE             d eps       ncg     rms          rms(c)
DAV:   1    -0.828392876039E+03    0.72962E-02   -0.12394E+00 11960   0.113E+00    0.594E-01
RMM:   2    -0.828400576541E+03   -0.77005E-02   -0.77436E-02 13492   0.442E-01    0.312E-01
RMM:   3    -0.828405049541E+03   -0.44730E-02   -0.15735E-02 14272   0.207E-01    0.579E-01
RMM:   4    -0.828400110483E+03    0.49391E-02   -0.35597E-03 12920   0.139E-01    0.216E-01
RMM:   5    -0.828400018853E+03    0.91630E-04   -0.57686E-04 14456   0.380E-02    0.186E-01
RMM:   6    -0.828399920558E+03    0.98295E-04   -0.30814E-04 13280   0.304E-02    0.138E-01
RMM:   7    -0.828399948612E+03   -0.28054E-04   -0.63042E-04 13942   0.418E-02    0.934E-02
RMM:   8    -0.828399918959E+03    0.29653E-04   -0.29029E-04 13939   0.274E-02    0.572E-02
RMM:   9    -0.828399886129E+03    0.32830E-04   -0.57910E-05 11391   0.168E-02    0.367E-02
RMM:  10    -0.828399864220E+03    0.21909E-04   -0.33251E-05 12242   0.945E-03    0.255E-02
RMM:  11    -0.828399857560E+03    0.66606E-05   -0.51046E-05 13424   0.108E-02    0.170E-02
RMM:  12    -0.828399855734E+03    0.18258E-05   -0.90292E-06 10366   0.584E-03    0.639E-03
RMM:  13    -0.828399856093E+03   -0.35933E-06   -0.13099E-06  7531   0.262E-03
  29 F= -.83766953E+03 E0= -.83762028E+03  d E =-.323506E-02  mag=    -0.0000
 curvature:  -3.66 expect dE=-0.244E-01 dE for cont linesearch -0.142E-03
 ZBRENT: extrapolating
 opt :   1.6229  next Energy=  -837.669690 (dE=-0.339E-02)
 bond charge predicted
       N       E                     dE             d eps       ncg     rms          rms(c)
DAV:   1    -0.828398169305E+03    0.16864E-02   -0.17358E-01 12184   0.424E-01    0.221E-01
RMM:   2    -0.828399245259E+03   -0.10760E-02   -0.10795E-02 13323   0.167E-01    0.118E-01
RMM:   3    -0.828399884008E+03   -0.63875E-03   -0.23125E-03 14189   0.790E-02    0.218E-01
RMM:   4    -0.828399183917E+03    0.70009E-03   -0.51344E-04 12845   0.527E-02    0.797E-02
RMM:   5    -0.828399170634E+03    0.13283E-04   -0.87931E-05 13503   0.150E-02    0.686E-02
RMM:   6    -0.828399157090E+03    0.13544E-04   -0.41943E-05 12257   0.116E-02    0.516E-02
RMM:   7    -0.828399162383E+03   -0.52925E-05   -0.91524E-05 13432   0.153E-02    0.347E-02
RMM:   8    -0.828399158714E+03    0.36694E-05   -0.41169E-05 12674   0.109E-02    0.222E-02
RMM:   9    -0.828399153983E+03    0.47302E-05   -0.86965E-06  9889   0.679E-03    0.137E-02
RMM:  10    -0.828399151551E+03    0.24326E-05   -0.41656E-06  9076   0.380E-03    0.961E-03
RMM:  11    -0.828399151379E+03    0.17167E-06   -0.81744E-06 10781   0.438E-03
  30 F= -.83766972E+03 E0= -.83762038E+03  d E =-.342154E-02  mag=    -0.0000
 curvature:  -4.01 expect dE=-0.437E-01 dE for cont linesearch -0.102E-05
 trial: gam= 3.03235 g(F)=  0.109E-01 g(S)=  0.000E+00 ort =-0.709E-04 (trialstep = 0.594E-01)
 search vector abs. value=  0.192E+00
 bond charge predicted
       N       E                     dE             d eps       ncg     rms          rms(c)
DAV:   1    -0.828399034720E+03    0.11683E-03   -0.46294E-02 12688   0.214E-01    0.102E-01
RMM:   2    -0.828399307115E+03   -0.27240E-03   -0.29154E-03 13106   0.883E-02    0.493E-02
RMM:   3    -0.828399442800E+03   -0.13568E-03   -0.62493E-04 14234   0.391E-02    0.942E-02
RMM:   4    -0.828399323916E+03    0.11888E-03   -0.98850E-05 12141   0.221E-02    0.417E-02
RMM:   5    -0.828399321372E+03    0.25435E-05   -0.19727E-05 11886   0.603E-03    0.377E-02
RMM:   6    -0.828399318323E+03    0.30498E-05   -0.31055E-06  8266   0.348E-03    0.327E-02
RMM:   7    -0.828399317422E+03    0.90046E-06   -0.29695E-05 12331   0.756E-03    0.198E-02
RMM:   8    -0.828399319176E+03   -0.17537E-05   -0.24411E-05 12698   0.700E-03    0.111E-02
RMM:   9    -0.828399318585E+03    0.59092E-06   -0.20477E-06  7812   0.324E-03
  31 F= -.83767037E+03 E0= -.83762099E+03  d E =-.644013E-03  mag=    -0.0000
 ZBRENT: can't locate minimum, use default step
 trial-energy change:   -0.000644  1 .order   -0.000635   -0.000636   -0.000635
 step:   0.2377(harm= 45.4568)  dis= 0.00878  next Energy=  -837.912935 (dE=-0.243E+00)
 bond charge predicted
       N       E                     dE             d eps       ncg     rms          rms(c)
DAV:   1    -0.828397098872E+03    0.22203E-02   -0.41429E-01 11972   0.638E-01    0.309E-01
RMM:   2    -0.828399526475E+03   -0.24276E-02   -0.26179E-02 13377   0.255E-01    0.153E-01
RMM:   3    -0.828400772528E+03   -0.12461E-02   -0.51724E-03 14386   0.113E-01    0.291E-01
RMM:   4    -0.828399606813E+03    0.11657E-02   -0.87433E-04 13046   0.660E-02    0.124E-01
RMM:   5    -0.828399585761E+03    0.21052E-04   -0.15612E-04 14239   0.159E-02    0.111E-01
RMM:   6    -0.828399557301E+03    0.28460E-04   -0.39123E-05 12492   0.106E-02    0.925E-02
RMM:   7    -0.828399556350E+03    0.95103E-06   -0.22651E-04 13896   0.208E-02    0.569E-02
RMM:   8    -0.828399554931E+03    0.14194E-05   -0.14401E-04 13678   0.184E-02    0.320E-02
RMM:   9    -0.828399550348E+03    0.45834E-05   -0.23725E-05 11069   0.924E-03    0.284E-02
RMM:  10    -0.828399538772E+03    0.11575E-04   -0.78892E-06 10548   0.530E-03    0.196E-02
