<?xml version="1.0" encoding="ISO-8859-1"?>
<modeling>
 <generator>
  <i name="program" type="string">vasp </i>
  <i name="version" type="string">5.4.4.18Apr17-6-g9f103f2a35  </i>
  <i name="subversion" type="string">(build Nov 10 2019 13:41:14) complex            parallel </i>
  <i name="platform" type="string">LinuxIFC </i>
  <i name="date" type="string">2019 11 25 </i>
  <i name="time" type="string">11:30:44 </i>
 </generator>
 <incar>
  <i type="string" name="SYSTEM"> membrane</i>
  <i type="int" name="ISTART">     0</i>
  <i type="string" name="PREC">normal</i>
  <i type="string" name="ALGO"> Fast</i>
  <i type="int" name="ISPIN">     2</i>
  <i type="int" name="ICHARG">     2</i>
  <i type="int" name="IBRION">     2</i>
  <i name="EDIFF">      0.00000100</i>
  <i name="EDIFFG">     -0.01000000</i>
  <i type="int" name="NSW">  1000</i>
  <i name="ENCUT">    500.00000000</i>
  <i type="logical" name="LPLANE"> T  </i>
  <i type="int" name="ISMEAR">     0</i>
  <i name="SIGMA">      0.05000000</i>
  <i type="logical" name="LWAVE"> F  </i>
  <i type="logical" name="LCHARG"> F  </i>
  <v type="int" name="KPOINT_BSE">    -1     0     0     0</v>
 </incar>
 <structure name="primitive_cell" >
  <crystal>
   <varray name="basis" >
    <v>      26.26650047       0.00000000       0.00000000 </v>
    <v>     -13.13288029      22.74974710       0.00000000 </v>
    <v>       0.00000000       0.00000000      20.20179939 </v>
   </varray>
   <i name="volume">  12071.71134534 </i>
   <varray name="rec_basis" >
    <v>       0.03807131       0.02197765       0.00000000 </v>
    <v>       0.00000000       0.04395653       0.00000000 </v>
    <v>       0.00000000       0.00000000       0.04950054 </v>
   </varray>
  </crystal>
  <varray name="positions" >
   <v>       0.02973097       0.30214115      -0.49984897 </v>
   <v>      -0.03238702       0.27109524      -0.49958879 </v>
   <v>       0.06080157       0.36429751      -0.49985751 </v>
   <v>       0.06786389       0.26411872      -0.49994606 </v>
   <v>       0.02969026       0.39532213      -0.49960546 </v>
   <v>      -0.06350737       0.30209738      -0.49890237 </v>
   <v>      -0.07039953       0.19499196       0.49987182 </v>
   <v>       0.13697144       0.40235846       0.49996379 </v>
   <v>      -0.03241790       0.36429444      -0.49890679 </v>
   <v>      -0.00127661       0.16653257      -0.49995557 </v>
   <v>       0.16548245       0.33322418       0.49989399 </v>
   <v>       0.06776827       0.47142268       0.49977747 </v>
   <v>      -0.13965624       0.26414006      -0.49828200 </v>
   <v>      -0.07061598       0.40224753      -0.49828095 </v>
   <v>      -0.16800845       0.16658206      -0.49861664 </v>
   <v>       0.16538491       0.49991230      -0.49992859 </v>
   <v>       0.06784454       0.13811136       0.49968609 </v>
   <v>       0.19399436       0.26408546       0.49982067 </v>
   <v>      -0.07041574       0.06897485      -0.49925558 </v>
   <v>       0.26312362       0.40232679       0.49982765 </v>
   <v>      -0.00135075       0.49985291      -0.49866269 </v>
   <v>      -0.16829586       0.33315596      -0.49417060 </v>
   <v>      -0.19638958       0.06903500       0.49972646 </v>
   <v>       0.26297818      -0.47169274       0.49971737 </v>
   <v>       0.16543924       0.16651358      -0.49986190 </v>
   <v>       0.02977220       0.06199104      -0.49982215 </v>
   <v>       0.27013248       0.30212592      -0.49992527 </v>
   <v>      -0.03235448       0.03092169      -0.49970926 </v>
   <v>       0.30120374       0.36428123      -0.49991187 </v>
   <v>       0.19382673      -0.40257321      -0.49927688 </v>
   <v>      -0.26561020       0.13825991      -0.49889570 </v>
   <v>      -0.16793819      -0.00012919      -0.49988902 </v>
   <v>       0.33217956       0.49993103      -0.49981556 </v>
   <v>       0.06781390      -0.40256291       0.49957133 </v>
   <v>      -0.26581111       0.26430059      -0.49726398 </v>
   <v>      -0.27248500       0.03104199      -0.49969095 </v>
   <v>       0.06085938       0.03095933      -0.49968869 </v>
   <v>       0.30100841      -0.39557797      -0.49983352 </v>
   <v>       0.30122972       0.27106102      -0.49956828 </v>
   <v>      -0.07058722      -0.47182369      -0.49901252 </v>
   <v>      -0.19671983       0.40218217      -0.49135478 </v>
   <v>      -0.30353443       0.06211775      -0.49917350 </v>
   <v>       0.26992393      -0.36453202      -0.49972753 </v>
   <v>      -0.06343419      -0.03124217      -0.49981515 </v>
   <v>       0.36337062       0.39536509      -0.49957017 </v>
   <v>       0.13697596       0.06901554      -0.49921041 </v>
   <v>       0.26312472       0.19499522       0.49999731 </v>
   <v>       0.16539825      -0.33346127      -0.49985119 </v>
   <v>      -0.33472496       0.16680907      -0.49446087 </v>
   <v>      -0.13955137      -0.06931451       0.49971344 </v>
   <v>       0.40132964       0.47142561       0.49994928 </v>
   <v>      -0.30354591       0.30203302      -0.49201339 </v>
   <v>      -0.30353987      -0.03110005      -0.49984115 </v>
   <v>       0.02971625      -0.36458816      -0.49974374 </v>
   <v>       0.02978998      -0.03119880      -0.49980173 </v>
   <v>       0.36315732      -0.36449830      -0.49969483 </v>
   <v>       0.36336571       0.30212743      -0.49888195 </v>
   <v>      -0.03242504      -0.39570305      -0.49923935 </v>
   <v>      -0.27235585       0.36441043      -0.49121974 </v>
   <v>      -0.03234243      -0.06226700      -0.49970363 </v>
   <v>       0.39445798       0.36431805      -0.49889635 </v>
   <v>      -0.26549205      -0.06920941      -0.49973386 </v>
   <v>       0.40120611      -0.40253855      -0.49914161 </v>
   <v>      -0.27808936       0.31823683      -0.33192535 </v>
   <v>      -0.16825004       0.49957630      -0.49425505 </v>
   <v>      -0.36571178       0.03101831      -0.49916579 </v>
   <v>       0.30100017      -0.30235867      -0.49982547 </v>
   <v>      -0.40367567       0.06921325      -0.49880226 </v>
   <v>       0.26295572      -0.26429803       0.49974778 </v>
   <v>      -0.36569118      -0.06218051      -0.49986183 </v>
   <v>       0.06079552      -0.30243265      -0.49986599 </v>
   <v>      -0.36576879       0.27093760      -0.49001970 </v>
   <v>       0.39423315      -0.30233558      -0.49981855 </v>
   <v>       0.16544910      -0.00002198      -0.49986687 </v>
   <v>      -0.06354297      -0.36463580      -0.49923109 </v>
   <v>      -0.39675309      -0.03109949      -0.49970062 </v>
   <v>      -0.30344013       0.39549061      -0.49030827 </v>
   <v>       0.33230710       0.16666086      -0.49822129 </v>
   <v>       0.36312935      -0.27130025      -0.49972147 </v>
   <v>      -0.40351525       0.19534626      -0.48699870 </v>
   <v>       0.13693192      -0.26433448      -0.49979281 </v>
   <v>       0.06787949      -0.06922358       0.49974379 </v>
   <v>       0.40155454       0.26421473      -0.49831380 </v>
   <v>      -0.07038915      -0.13837436      -0.49933722 </v>
   <v>       0.47058043       0.40225875      -0.49839560 </v>
   <v>       0.26307520       0.06912560       0.49974294 </v>
   <v>      -0.26557888       0.47112674      -0.49103753 </v>
   <v>      -0.13965605      -0.40281741      -0.49898978 </v>
   <v>      -0.16795759      -0.16689228      -0.49989862 </v>
   <v>       0.49888283       0.49975953      -0.49820008 </v>
   <v>      -0.34394979       0.33505700      -0.28813936 </v>
   <v>       0.49868476      -0.33356834      -0.49986042 </v>
   <v>      -0.33464843      -0.16685243       0.49992992 </v>
   <v>       0.02969034      -0.27137706      -0.49987594 </v>
   <v>      -0.39688363       0.30203098      -0.49037953 </v>
   <v>      -0.03245235      -0.30247650      -0.49971035 </v>
   <v>      -0.36571365       0.36432648      -0.48977023 </v>
   <v>      -0.47281080      -0.40274664       0.49964782 </v>
   <v>      -0.26553889      -0.19538931       0.49963979 </v>
   <v>      -0.40374057      -0.13832271      -0.49992995 </v>
   <v>       0.47033139      -0.26430447       0.49975718 </v>
   <v>      -0.32848225       0.41895606      -0.32659976 </v>
   <v>      -0.47284051      -0.06916143       0.49969136 </v>
   <v>       0.40117091      -0.19519217      -0.49933510 </v>
   <v>      -0.00133246      -0.16679259      -0.49978834 </v>
   <v>       0.49913666       0.33323626      -0.49326858 </v>
   <v>      -0.33898626       0.33558806      -0.18246217 </v>
   <v>       0.49883358       0.00007905      -0.49851458 </v>
   <v>       0.33217260      -0.16666566      -0.49984149 </v>
   <v>      -0.42960811       0.26618257      -0.32127744 </v>
   <v>       0.30116551       0.03113315      -0.49951604 </v>
   <v>       0.19393970      -0.06910273       0.49983125 </v>
   <v>       0.40147380       0.13832747      -0.49787453 </v>
   <v>       0.49907858       0.16690505      -0.49227266 </v>
   <v>       0.16540958      -0.16672019       0.49999335 </v>
   <v>      -0.47244200       0.26430470      -0.49364903 </v>
   <v>       0.06776099      -0.19524833      -0.49987689 </v>
   <v>       0.47053276       0.06933101      -0.49777169 </v>
   <v>       0.26309389      -0.13820409       0.49975634 </v>
   <v>      -0.40355418       0.40207679      -0.48887887 </v>
   <v>      -0.07046277      -0.26441515       0.49980828 </v>
   <v>      -0.33457457       0.49949289      -0.49155774 </v>
   <v>      -0.16799535      -0.33361540      -0.49837519 </v>
   <v>      -0.19640382      -0.26448317       0.49962198 </v>
   <v>      -0.40357586      -0.47192578      -0.49746262 </v>
   <v>      -0.39678375      -0.36478516      -0.49944450 </v>
   <v>       0.27008470      -0.03102233      -0.49989480 </v>
   <v>       0.36330005       0.06221528      -0.49864247 </v>
   <v>      -0.30355963      -0.27150180      -0.49993199 </v>
   <v>       0.49867208      -0.16675838      -0.49978855 </v>
   <v>      -0.26552719      -0.40284584      -0.49735286 </v>
   <v>      -0.40375909      -0.26453804       0.49971231 </v>
   <v>      -0.36566355      -0.39581724      -0.49842010 </v>
   <v>      -0.27243590      -0.30257567      -0.49949779 </v>
   <v>      -0.36571514      -0.30259745      -0.49989354 </v>
   <v>       0.40133752      -0.06903851       0.49948266 </v>
   <v>       0.39440104       0.03115519      -0.49865139 </v>
   <v>       0.30117069      -0.06206245      -0.49991362 </v>
   <v>      -0.30349310      -0.36470902      -0.49842907 </v>
   <v>       0.36333653      -0.03096176      -0.49958167 </v>
  </varray>
 </structure>
 <varray name="primitive_index" >
  <v type="int" >        1 </v>
  <v type="int" >       17 </v>
  <v type="int" >       22 </v>
  <v type="int" >      109 </v>
  <v type="int" >       20 </v>
  <v type="int" >       15 </v>
  <v type="int" >       71 </v>
  <v type="int" >       76 </v>
  <v type="int" >       36 </v>
  <v type="int" >      115 </v>
  <v type="int" >      138 </v>
  <v type="int" >       74 </v>
  <v type="int" >       69 </v>
  <v type="int" >       90 </v>
  <v type="int" >      116 </v>
  <v type="int" >      119 </v>
  <v type="int" >       56 </v>
  <v type="int" >       57 </v>
  <v type="int" >       72 </v>
  <v type="int" >       78 </v>
  <v type="int" >      124 </v>
  <v type="int" >      117 </v>
  <v type="int" >       70 </v>
  <v type="int" >       77 </v>
  <v type="int" >      137 </v>
  <v type="int" >        2 </v>
  <v type="int" >        3 </v>
  <v type="int" >       18 </v>
  <v type="int" >       24 </v>
  <v type="int" >       75 </v>
  <v type="int" >       68 </v>
  <v type="int" >      135 </v>
  <v type="int" >      118 </v>
  <v type="int" >       73 </v>
  <v type="int" >       67 </v>
  <v type="int" >       16 </v>
  <v type="int" >        4 </v>
  <v type="int" >       23 </v>
  <v type="int" >        5 </v>
  <v type="int" >       89 </v>
  <v type="int" >       88 </v>
  <v type="int" >       14 </v>
  <v type="int" >       21 </v>
  <v type="int" >       51 </v>
  <v type="int" >       26 </v>
  <v type="int" >       58 </v>
  <v type="int" >       59 </v>
  <v type="int" >      120 </v>
  <v type="int" >      139 </v>
  <v type="int" >      105 </v>
  <v type="int" >       80 </v>
  <v type="int" >       13 </v>
  <v type="int" >       49 </v>
  <v type="int" >       19 </v>
  <v type="int" >       37 </v>
  <v type="int" >       25 </v>
  <v type="int" >        7 </v>
  <v type="int" >       35 </v>
  <v type="int" >       34 </v>
  <v type="int" >       53 </v>
  <v type="int" >       28 </v>
  <v type="int" >      103 </v>
  <v type="int" >       79 </v>
  <v type="int" >      110 </v>
  <v type="int" >      125 </v>
  <v type="int" >       12 </v>
  <v type="int" >       42 </v>
  <v type="int" >       66 </v>
  <v type="int" >       96 </v>
  <v type="int" >       47 </v>
  <v type="int" >       40 </v>
  <v type="int" >       11 </v>
  <v type="int" >       46 </v>
  <v type="int" >      129 </v>
  <v type="int" >       33 </v>
  <v type="int" >       45 </v>
  <v type="int" >       32 </v>
  <v type="int" >      136 </v>
  <v type="int" >       44 </v>
  <v type="int" >       65 </v>
  <v type="int" >       94 </v>
  <v type="int" >       91 </v>
  <v type="int" >       61 </v>
  <v type="int" >      107 </v>
  <v type="int" >       82 </v>
  <v type="int" >       60 </v>
  <v type="int" >       86 </v>
  <v type="int" >       87 </v>
  <v type="int" >      134 </v>
  <v type="int" >      122 </v>
  <v type="int" >       55 </v>
  <v type="int" >      123 </v>
  <v type="int" >      130 </v>
  <v type="int" >       38 </v>
  <v type="int" >        9 </v>
  <v type="int" >       54 </v>
  <v type="int" >       30 </v>
  <v type="int" >       81 </v>
  <v type="int" >      104 </v>
  <v type="int" >      101 </v>
  <v type="int" >      100 </v>
  <v type="int" >      111 </v>
  <v type="int" >       99 </v>
  <v type="int" >       98 </v>
  <v type="int" >      133 </v>
  <v type="int" >      114 </v>
  <v type="int" >      113 </v>
  <v type="int" >      132 </v>
  <v type="int" >      127 </v>
  <v type="int" >      112 </v>
  <v type="int" >        6 </v>
  <v type="int" >       93 </v>
  <v type="int" >       62 </v>
  <v type="int" >      140 </v>
  <v type="int" >      128 </v>
  <v type="int" >       63 </v>
  <v type="int" >       92 </v>
  <v type="int" >       64 </v>
  <v type="int" >       95 </v>
  <v type="int" >       84 </v>
  <v type="int" >      108 </v>
  <v type="int" >      121 </v>
  <v type="int" >      126 </v>
  <v type="int" >      106 </v>
  <v type="int" >       83 </v>
  <v type="int" >       27 </v>
  <v type="int" >       39 </v>
  <v type="int" >        8 </v>
  <v type="int" >       50 </v>
  <v type="int" >      131 </v>
  <v type="int" >       85 </v>
  <v type="int" >      102 </v>
  <v type="int" >       29 </v>
  <v type="int" >       52 </v>
  <v type="int" >       48 </v>
  <v type="int" >       97 </v>
  <v type="int" >       10 </v>
  <v type="int" >       41 </v>
  <v type="int" >       31 </v>
  <v type="int" >       43 </v>
 </varray>
 <kpoints>
  <generation param="Gamma">
   <v type="int" name="divisions">       3        3        1 </v>
   <v name="usershift">      0.00000000       0.00000000       0.00000000 </v>
   <v name="genvec1">      0.33333333       0.00000000       0.00000000 </v>
   <v name="genvec2">      0.00000000       0.33333333       0.00000000 </v>
   <v name="genvec3">      0.00000000       0.00000000       1.00000000 </v>
   <v name="shift">      0.00000000       0.00000000       0.00000000 </v>
  </generation>
  <varray name="kpointlist" >
   <v>       0.00000000       0.00000000       0.00000000 </v>
   <v>       0.33333333      -0.00000000       0.00000000 </v>
   <v>       0.00000000       0.33333333       0.00000000 </v>
   <v>       0.33333333       0.33333333       0.00000000 </v>
   <v>      -0.33333333       0.33333333       0.00000000 </v>
  </varray>
  <varray name="weights" >
   <v>       0.11111111 </v>
   <v>       0.22222222 </v>
   <v>       0.22222222 </v>
   <v>       0.22222222 </v>
   <v>       0.22222222 </v>
  </varray>
 </kpoints>
 <parameters>
  <separator name="general" >
   <i type="string" name="SYSTEM">membrane</i>
   <i type="logical" name="LCOMPAT"> F  </i>
  </separator>
  <separator name="electronic" >
   <i type="string" name="PREC">normal</i>
   <i name="ENMAX">    500.00000000</i>
   <i name="ENAUG">    644.87300000</i>
   <i name="EDIFF">      0.00000100</i>
   <i type="int" name="IALGO">    68</i>
   <i type="int" name="IWAVPR">    11</i>
   <i type="int" name="NBANDS">   590</i>
   <i name="NELECT">    868.00000000</i>
   <i type="int" name="TURBO">     0</i>
   <i type="int" name="IRESTART">     0</i>
   <i type="int" name="NREBOOT">     0</i>
   <i type="int" name="NMIN">     0</i>
   <i name="EREF">      0.00000000</i>
   <separator name="electronic smearing" >
    <i type="int" name="ISMEAR">     0</i>
    <i name="SIGMA">      0.05000000</i>
    <i name="KSPACING">      0.50000000</i>
    <i type="logical" name="KGAMMA"> T  </i>
   </separator>
   <separator name="electronic projectors" >
    <i type="logical" name="LREAL"> F  </i>
    <v name="ROPT">      0.00000000      0.00000000      0.00000000      0.00000000      0.00000000</v>
    <i type="int" name="LMAXPAW">  -100</i>
    <i type="int" name="LMAXMIX">     2</i>
    <i type="logical" name="NLSPLINE"> F  </i>
   </separator>
   <separator name="electronic startup" >
    <i type="int" name="ISTART">     0</i>
    <i type="int" name="ICHARG">     2</i>
    <i type="int" name="INIWAV">     1</i>
   </separator>
   <separator name="electronic spin" >
    <i type="int" name="ISPIN">     2</i>
    <i type="logical" name="LNONCOLLINEAR"> F  </i>
    <v name="MAGMOM">      1.00000000      1.00000000      1.00000000      1.00000000      1.00000000      1.00000000      1.00000000      1.00000000      1.00000000      1.00000000      1.00000000      1.00000000      1.00000000      1.00000000      1.00000000      1.00000000      1.00000000      1.00000000      1.00000000      1.00000000
      1.00000000      1.00000000      1.00000000      1.00000000      1.00000000      1.00000000      1.00000000      1.00000000      1.00000000      1.00000000      1.00000000      1.00000000      1.00000000      1.00000000      1.00000000      1.00000000      1.00000000      1.00000000      1.00000000      1.00000000
      1.00000000      1.00000000      1.00000000      1.00000000      1.00000000      1.00000000      1.00000000      1.00000000      1.00000000      1.00000000      1.00000000      1.00000000      1.00000000      1.00000000      1.00000000      1.00000000      1.00000000      1.00000000      1.00000000      1.00000000
      1.00000000      1.00000000      1.00000000      1.00000000      1.00000000      1.00000000      1.00000000      1.00000000      1.00000000      1.00000000      1.00000000      1.00000000      1.00000000      1.00000000      1.00000000      1.00000000      1.00000000      1.00000000      1.00000000      1.00000000
      1.00000000      1.00000000      1.00000000      1.00000000      1.00000000      1.00000000      1.00000000      1.00000000      1.00000000      1.00000000      1.00000000      1.00000000      1.00000000      1.00000000      1.00000000      1.00000000      1.00000000      1.00000000      1.00000000      1.00000000
      1.00000000      1.00000000      1.00000000      1.00000000      1.00000000      1.00000000      1.00000000      1.00000000      1.00000000      1.00000000      1.00000000      1.00000000      1.00000000      1.00000000      1.00000000      1.00000000      1.00000000      1.00000000      1.00000000      1.00000000
      1.00000000      1.00000000      1.00000000      1.00000000      1.00000000      1.00000000      1.00000000      1.00000000      1.00000000      1.00000000      1.00000000      1.00000000      1.00000000      1.00000000      1.00000000      1.00000000      1.00000000      1.00000000      1.00000000      1.00000000
</v>
    <i name="NUPDOWN">     -1.00000000</i>
    <i type="logical" name="LSORBIT"> F  </i>
    <v name="SAXIS">      0.00000000      0.00000000      1.00000000</v>
    <i type="logical" name="LSPIRAL"> F  </i>
    <v name="QSPIRAL">      0.00000000      0.00000000      0.00000000</v>
    <i type="logical" name="LZEROZ"> F  </i>
   </separator>
   <separator name="electronic exchange-correlation" >
    <i type="logical" name="LASPH"> F  </i>
    <i type="logical" name="LMETAGGA"> F  </i>
   </separator>
   <separator name="electronic convergence" >
    <i type="int" name="NELM">    60</i>
    <i type="int" name="NELMDL">    -5</i>
    <i type="int" name="NELMIN">     2</i>
    <i name="ENINI">    500.00000000</i>
    <separator name="electronic convergence detail" >
     <i type="logical" name="LDIAG"> T  </i>
     <i type="logical" name="LSUBROT"> F  </i>
     <i name="WEIMIN">      0.00100000</i>
     <i name="EBREAK">      0.00000000</i>
     <i name="DEPER">      0.30000000</i>
     <i type="int" name="NRMM">     4</i>
     <i name="TIME">      0.40000000</i>
    </separator>
   </separator>
   <separator name="electronic mixer" >
    <i name="AMIX">      0.40000000</i>
    <i name="BMIX">      1.00000000</i>
    <i name="AMIN">      0.10000000</i>
    <i name="AMIX_MAG">      1.60000000</i>
    <i name="BMIX_MAG">      1.00000000</i>
    <separator name="electronic mixer details" >
     <i type="int" name="IMIX">     4</i>
     <i type="logical" name="MIXFIRST"> F  </i>
     <i type="int" name="MAXMIX">   -45</i>
     <i name="WC">    100.00000000</i>
     <i type="int" name="INIMIX">     1</i>
     <i type="int" name="MIXPRE">     1</i>
     <i type="int" name="MREMOVE">     5</i>
    </separator>
   </separator>
   <separator name="electronic dipolcorrection" >
    <i type="logical" name="LDIPOL"> F  </i>
    <i type="logical" name="LMONO"> F  </i>
    <i type="int" name="IDIPOL">     0</i>
    <i name="EPSILON">      1.00000000</i>
    <v name="DIPOL">   -100.00000000   -100.00000000   -100.00000000</v>
    <i name="EFIELD">      0.00000000</i>
   </separator>
  </separator>
  <separator name="grids" >
   <i type="int" name="NGX">   144</i>
   <i type="int" name="NGY">   144</i>
   <i type="int" name="NGZ">   112</i>
   <i type="int" name="NGXF">   288</i>
   <i type="int" name="NGYF">   288</i>
   <i type="int" name="NGZF">   224</i>
   <i type="logical" name="ADDGRID"> F  </i>
  </separator>
  <separator name="ionic" >
   <i type="int" name="NSW">  1000</i>
   <i type="int" name="IBRION">     2</i>
   <i type="int" name="MDALGO">     0</i>
   <i type="int" name="ISIF">     2</i>
   <i name="PSTRESS">      0.00000000</i>
   <i name="EDIFFG">     -0.01000000</i>
   <i type="int" name="NFREE">     1</i>
   <i name="POTIM">      0.50000000</i>
   <i name="SMASS">     -3.00000000</i>
   <i name="SCALEE">      1.00000000</i>
  </separator>
  <separator name="ionic md" >
   <i name="TEBEG">      0.00010000</i>
   <i name="TEEND">      0.00010000</i>
   <i type="int" name="NBLOCK">     1</i>
   <i type="int" name="KBLOCK">  1000</i>
   <i type="int" name="NPACO">   256</i>
   <i name="APACO">     16.00000000</i>
  </separator>
  <separator name="symmetry" >
   <i type="int" name="ISYM">     2</i>
   <i name="SYMPREC">      0.00001000</i>
  </separator>
  <separator name="dos" >
   <i type="int" name="LORBIT">     0</i>
   <v name="RWIGS">     -1.00000000     -1.00000000     -1.00000000     -1.00000000     -1.00000000</v>
   <i type="int" name="NEDOS">   301</i>
   <i name="EMIN">     10.00000000</i>
   <i name="EMAX">    -10.00000000</i>
   <i name="EFERMI">      0.00000000</i>
  </separator>
  <separator name="writing" >
   <i type="int" name="NWRITE">     2</i>
   <i type="logical" name="LWAVE"> F  </i>
   <i type="logical" name="LDOWNSAMPLE"> F  </i>
   <i type="logical" name="LCHARG"> F  </i>
   <i type="logical" name="LPARD"> F  </i>
   <i type="logical" name="LVTOT"> F  </i>
   <i type="logical" name="LVHAR"> F  </i>
   <i type="logical" name="LELF"> F  </i>
   <i type="logical" name="LOPTICS"> F  </i>
   <v name="STM">      0.00000000      0.00000000      0.00000000      0.00000000      0.00000000      0.00000000      0.00000000</v>
  </separator>
  <separator name="performance" >
   <i type="int" name="NPAR">     2</i>
   <i type="int" name="NSIM">     4</i>
   <i type="int" name="NBLK">    -1</i>
   <i type="logical" name="LPLANE"> T  </i>
   <i type="logical" name="LSCALAPACK"> T  </i>
   <i type="logical" name="LSCAAWARE"> F  </i>
   <i type="logical" name="LSCALU"> F  </i>
   <i type="logical" name="LASYNC"> F  </i>
   <i type="logical" name="LORBITALREAL"> F  </i>
  </separator>
  <separator name="miscellaneous" >
   <i type="int" name="IDIOT">     3</i>
   <i type="int" name="ISPECIAL">     0</i>
   <i type="logical" name="LMUSIC"> F  </i>
   <v name="POMASS">     12.01100000     26.98100000     32.06600000     35.45300000     63.54600000</v>
   <v name="DARWINR">      0.00000000      0.00000000      0.00000000      0.00000000      0.00000000</v>
   <v name="DARWINV">      1.00000000      1.00000000      1.00000000      1.00000000      1.00000000</v>
   <i type="logical" name="LCORR"> T  </i>
  </separator>
  <i type="logical" name="GGA_COMPAT"> T  </i>
  <i type="logical" name="LBERRY"> F  </i>
  <i type="int" name="ICORELEVEL">     0</i>
  <i type="logical" name="LDAU"> F  </i>
  <i type="int" name="I_CONSTRAINED_M">     0</i>
  <separator name="electronic exchange-correlation" >
   <i type="string" name="GGA">--</i>
   <i type="int" name="VOSKOWN">     0</i>
   <i type="logical" name="LHFCALC"> F  </i>
   <i type="string" name="PRECFOCK"></i>
   <i type="logical" name="LSYMGRAD"> F  </i>
   <i type="logical" name="LHFONE"> F  </i>
   <i type="logical" name="LRHFCALC"> F  </i>
   <i type="logical" name="LTHOMAS"> F  </i>
   <i type="logical" name="LMODELHF"> F  </i>
   <i name="ENCUT4O">     -1.00000000</i>
   <i type="int" name="EXXOEP">     0</i>
   <i type="int" name="FOURORBIT">     0</i>
   <i name="AEXX">      0.00000000</i>
   <i name="HFALPHA">      0.00000000</i>
   <i name="MCALPHA">      0.00000000</i>
   <i name="ALDAX">      1.00000000</i>
   <i name="AGGAX">      1.00000000</i>
   <i name="ALDAC">      1.00000000</i>
   <i name="AGGAC">      1.00000000</i>
   <i type="int" name="NKREDX">     1</i>
   <i type="int" name="NKREDY">     1</i>
   <i type="int" name="NKREDZ">     1</i>
   <i type="logical" name="SHIFTRED"> F  </i>
   <i type="logical" name="ODDONLY"> F  </i>
   <i type="logical" name="EVENONLY"> F  </i>
   <i type="int" name="LMAXFOCK">     0</i>
   <i type="int" name="NMAXFOCKAE">     0</i>
   <i type="logical" name="LFOCKAEDFT"> F  </i>
   <i name="HFSCREEN">      0.00000000</i>
   <i name="HFSCREENC">      0.00000000</i>
   <i type="int" name="NBANDSGWLOW">     0</i>
  </separator>
  <separator name="vdW DFT" >
   <i type="logical" name="LUSE_VDW"> F  </i>
   <i name="Zab_VDW">     -0.84910000</i>
   <i name="PARAM1">      0.12340000</i>
   <i name="PARAM2">      1.00000000</i>
   <i name="PARAM3">      0.00000000</i>
  </separator>
  <separator name="model GW" >
   <i type="int" name="MODEL_GW">     0</i>
   <i name="MODEL_EPS0">     51.73590577</i>
   <i name="MODEL_ALPHA">      1.00000000</i>
  </separator>
  <separator name="linear response parameters" >
   <i type="logical" name="LEPSILON"> F  </i>
   <i type="logical" name="LRPA"> F  </i>
   <i type="logical" name="LNABLA"> F  </i>
   <i type="logical" name="LVEL"> F  </i>
   <i type="int" name="KINTER">     0</i>
   <i name="CSHIFT">      0.10000000</i>
   <i name="OMEGAMAX">     -1.00000000</i>
   <i name="DEG_THRESHOLD">      0.00200000</i>
   <i name="RTIME">     -0.10000000</i>
   <i name="WPLASMAI">      0.00000000</i>
   <v name="DFIELD">      0.00000000      0.00000000      0.00000000</v>
   <v name="WPLASMA">      0.00000000      0.00000000      0.00000000      0.00000000      0.00000000      0.00000000      0.00000000      0.00000000      0.00000000</v>
  </separator>
  <separator name="orbital magnetization" >
   <i type="logical" name="NUCIND"> F  </i>
   <v name="MAGPOS">      0.00000000      0.00000000      0.00000000</v>
   <i type="logical" name="LNICSALL"> T  </i>
   <i type="logical" name="ORBITALMAG"> F  </i>
   <i type="logical" name="LMAGBLOCH"> F  </i>
   <i type="logical" name="LCHIMAG"> F  </i>
   <i type="logical" name="LGAUGE"> T  </i>
   <i type="int" name="MAGATOM">     0</i>
   <v name="MAGDIPOL">      0.00000000      0.00000000      0.00000000</v>
   <v name="AVECCONST">      0.00000000      0.00000000      0.00000000</v>
  </separator>
  <separator name="response functions" >
   <i type="logical" name="LADDER"> F  </i>
   <i type="logical" name="LRPAFORCE"> F  </i>
   <i type="logical" name="LFXC"> F  </i>
   <i type="logical" name="LHARTREE"> T  </i>
   <i type="int" name="IBSE">     0</i>
   <v type="int" name="KPOINT">    -1     0     0     0</v>
   <i type="logical" name="LTCTE"> F  </i>
   <i type="logical" name="LTETE"> F  </i>
   <i type="logical" name="LTRIPLET"> F  </i>
   <i type="logical" name="LFXCEPS"> F  </i>
   <i type="logical" name="LFXHEG"> F  </i>
   <i type="int" name="NATURALO">     2</i>
   <i type="logical" name="L2ORDER"> F  </i>
   <i type="logical" name="LMP2LT"> F  </i>
   <i type="logical" name="LUSEW"> F  </i>
   <i name="ENCUTGW">     -2.00000000</i>
   <i name="ENCUTGWSOFT">     -2.00000000</i>
   <i name="ENCUTLF">     -1.00000000</i>
   <i type="int" name="LMAXMP2">    -1</i>
   <i name="SCISSOR">      0.00000000</i>
   <i type="int" name="NOMEGA">     0</i>
   <i type="int" name="NOMEGAR">     0</i>
   <i type="int" name="NBANDSGW">    -1</i>
   <i type="int" name="NBANDSO">    -1</i>
   <i type="int" name="NBANDSV">    -1</i>
   <i type="int" name="NELM">     1</i>
   <i type="int" name="NELMHF">     1</i>
   <i type="int" name="DIM">     3</i>
   <i type="int" name="ANTIRES">     0</i>
   <i name="OMEGAMAX">    -30.00000000</i>
   <i name="OMEGAMIN">    -30.00000000</i>
   <i name="OMEGATL">   -200.00000000</i>
   <i type="int" name="OMEGAGRID">   140</i>
   <i name="CSHIFT">     -0.10000000</i>
   <i type="logical" name="SELFENERGY"> F  </i>
   <i type="logical" name="LSPECTRAL"> F  </i>
   <i type="logical" name="LSPECTRALGW"> F  </i>
   <i type="logical" name="LSINGLES"> F  </i>
   <i type="logical" name="LFERMIGW"> F  </i>
   <i type="logical" name="ODDONLYGW"> F  </i>
   <i type="logical" name="EVENONLYGW"> F  </i>
   <i type="int" name="NKREDLFX">     1</i>
   <i type="int" name="NKREDLFY">     1</i>
   <i type="int" name="NKREDLFZ">     1</i>
   <i type="int" name="MAXMEM">  2800</i>
   <i type="int" name="TELESCOPE">     0</i>
   <i type="int" name="TAUPAR">     1</i>
   <i type="int" name="OMEGAPAR">    -1</i>
   <i name="LAMBDA">      1.00000000</i>
  </separator>
  <separator name="External order field" >
   <i name="OFIELD_KAPPA">      0.00000000</i>
   <v name="OFIELD_K">      0.00000000      0.00000000      0.00000000</v>
   <i name="OFIELD_Q6_NEAR">      0.00000000</i>
   <i name="OFIELD_Q6_FAR">      0.00000000</i>
   <i name="OFIELD_A">      0.00000000</i>
  </separator>
  <separator name="solvation model" >
   <i type="logical" name="LSOL"> F  </i>
  </separator>
 </parameters>
 <atominfo>
  <atoms>     140 </atoms>
  <types>       5 </types>
  <array name="atoms" >
   <dimension dim="1">ion</dimension>
   <field type="string">element</field>
   <field type="int">atomtype</field>
   <set>
    <rc><c>C </c><c>   1</c></rc>
    <rc><c>C </c><c>   1</c></rc>
    <rc><c>C </c><c>   1</c></rc>
    <rc><c>C </c><c>   1</c></rc>
    <rc><c>C </c><c>   1</c></rc>
    <rc><c>C </c><c>   1</c></rc>
    <rc><c>C </c><c>   1</c></rc>
    <rc><c>C </c><c>   1</c></rc>
    <rc><c>C </c><c>   1</c></rc>
    <rc><c>C </c><c>   1</c></rc>
    <rc><c>C </c><c>   1</c></rc>
    <rc><c>C </c><c>   1</c></rc>
    <rc><c>C </c><c>   1</c></rc>
    <rc><c>C </c><c>   1</c></rc>
    <rc><c>C </c><c>   1</c></rc>
    <rc><c>C </c><c>   1</c></rc>
    <rc><c>C </c><c>   1</c></rc>
    <rc><c>C </c><c>   1</c></rc>
    <rc><c>C </c><c>   1</c></rc>
    <rc><c>C </c><c>   1</c></rc>
    <rc><c>C </c><c>   1</c></rc>
    <rc><c>C </c><c>   1</c></rc>
    <rc><c>C </c><c>   1</c></rc>
    <rc><c>C </c><c>   1</c></rc>
    <rc><c>C </c><c>   1</c></rc>
    <rc><c>C </c><c>   1</c></rc>
    <rc><c>C </c><c>   1</c></rc>
    <rc><c>C </c><c>   1</c></rc>
    <rc><c>C </c><c>   1</c></rc>
    <rc><c>C </c><c>   1</c></rc>
    <rc><c>C </c><c>   1</c></rc>
    <rc><c>C </c><c>   1</c></rc>
    <rc><c>C </c><c>   1</c></rc>
    <rc><c>C </c><c>   1</c></rc>
    <rc><c>C </c><c>   1</c></rc>
    <rc><c>C </c><c>   1</c></rc>
    <rc><c>C </c><c>   1</c></rc>
    <rc><c>C </c><c>   1</c></rc>
    <rc><c>C </c><c>   1</c></rc>
    <rc><c>C </c><c>   1</c></rc>
    <rc><c>C </c><c>   1</c></rc>
    <rc><c>C </c><c>   1</c></rc>
    <rc><c>C </c><c>   1</c></rc>
    <rc><c>C </c><c>   1</c></rc>
    <rc><c>C </c><c>   1</c></rc>
    <rc><c>C </c><c>   1</c></rc>
    <rc><c>C </c><c>   1</c></rc>
    <rc><c>C </c><c>   1</c></rc>
    <rc><c>C </c><c>   1</c></rc>
    <rc><c>C </c><c>   1</c></rc>
    <rc><c>C </c><c>   1</c></rc>
    <rc><c>C </c><c>   1</c></rc>
    <rc><c>C </c><c>   1</c></rc>
    <rc><c>C </c><c>   1</c></rc>
    <rc><c>Al</c><c>   2</c></rc>
    <rc><c>S </c><c>   3</c></rc>
    <rc><c>S </c><c>   3</c></rc>
    <rc><c>S </c><c>   3</c></rc>
    <rc><c>S </c><c>   3</c></rc>
    <rc><c>S </c><c>   3</c></rc>
    <rc><c>S </c><c>   3</c></rc>
    <rc><c>S </c><c>   3</c></rc>
    <rc><c>S </c><c>   3</c></rc>
    <rc><c>S </c><c>   3</c></rc>
    <rc><c>S </c><c>   3</c></rc>
    <rc><c>S </c><c>   3</c></rc>
    <rc><c>S </c><c>   3</c></rc>
    <rc><c>S </c><c>   3</c></rc>
    <rc><c>S </c><c>   3</c></rc>
    <rc><c>S </c><c>   3</c></rc>
    <rc><c>S </c><c>   3</c></rc>
    <rc><c>S </c><c>   3</c></rc>
    <rc><c>S </c><c>   3</c></rc>
    <rc><c>S </c><c>   3</c></rc>
    <rc><c>S </c><c>   3</c></rc>
    <rc><c>S </c><c>   3</c></rc>
    <rc><c>S </c><c>   3</c></rc>
    <rc><c>S </c><c>   3</c></rc>
    <rc><c>S </c><c>   3</c></rc>
    <rc><c>S </c><c>   3</c></rc>
    <rc><c>S </c><c>   3</c></rc>
    <rc><c>S </c><c>   3</c></rc>
    <rc><c>S </c><c>   3</c></rc>
    <rc><c>S </c><c>   3</c></rc>
    <rc><c>S </c><c>   3</c></rc>
    <rc><c>S </c><c>   3</c></rc>
    <rc><c>S </c><c>   3</c></rc>
    <rc><c>S </c><c>   3</c></rc>
    <rc><c>S </c><c>   3</c></rc>
    <rc><c>S </c><c>   3</c></rc>
    <rc><c>S </c><c>   3</c></rc>
    <rc><c>S </c><c>   3</c></rc>
    <rc><c>S </c><c>   3</c></rc>
    <rc><c>S </c><c>   3</c></rc>
    <rc><c>S </c><c>   3</c></rc>
    <rc><c>S </c><c>   3</c></rc>
    <rc><c>S </c><c>   3</c></rc>
    <rc><c>S </c><c>   3</c></rc>
    <rc><c>S </c><c>   3</c></rc>
    <rc><c>S </c><c>   3</c></rc>
    <rc><c>S </c><c>   3</c></rc>
    <rc><c>S </c><c>   3</c></rc>
    <rc><c>S </c><c>   3</c></rc>
    <rc><c>S </c><c>   3</c></rc>
    <rc><c>S </c><c>   3</c></rc>
    <rc><c>S </c><c>   3</c></rc>
    <rc><c>S </c><c>   3</c></rc>
    <rc><c>S </c><c>   3</c></rc>
    <rc><c>S </c><c>   3</c></rc>
    <rc><c>Cl</c><c>   4</c></rc>
    <rc><c>Cl</c><c>   4</c></rc>
    <rc><c>Cl</c><c>   4</c></rc>
    <rc><c>Cl</c><c>   4</c></rc>
    <rc><c>Cu</c><c>   5</c></rc>
    <rc><c>Cu</c><c>   5</c></rc>
    <rc><c>Cu</c><c>   5</c></rc>
    <rc><c>Cu</c><c>   5</c></rc>
    <rc><c>Cu</c><c>   5</c></rc>
    <rc><c>Cu</c><c>   5</c></rc>
    <rc><c>Cu</c><c>   5</c></rc>
    <rc><c>Cu</c><c>   5</c></rc>
    <rc><c>Cu</c><c>   5</c></rc>
    <rc><c>Cu</c><c>   5</c></rc>
    <rc><c>Cu</c><c>   5</c></rc>
    <rc><c>Cu</c><c>   5</c></rc>
    <rc><c>Cu</c><c>   5</c></rc>
    <rc><c>Cu</c><c>   5</c></rc>
    <rc><c>Cu</c><c>   5</c></rc>
    <rc><c>Cu</c><c>   5</c></rc>
    <rc><c>Cu</c><c>   5</c></rc>
    <rc><c>Cu</c><c>   5</c></rc>
    <rc><c>Cu</c><c>   5</c></rc>
    <rc><c>Cu</c><c>   5</c></rc>
    <rc><c>Cu</c><c>   5</c></rc>
    <rc><c>Cu</c><c>   5</c></rc>
    <rc><c>Cu</c><c>   5</c></rc>
    <rc><c>Cu</c><c>   5</c></rc>
    <rc><c>Cu</c><c>   5</c></rc>
    <rc><c>Cu</c><c>   5</c></rc>
    <rc><c>Cu</c><c>   5</c></rc>
   </set>
  </array>
  <array name="atomtypes" >
   <dimension dim="1">type</dimension>
   <field type="int">atomspertype</field>
   <field type="string">element</field>
   <field>mass</field>
   <field>valence</field>
   <field type="string">pseudopotential</field>
   <set>
    <rc><c>  54</c><c>C </c><c>     12.01100000</c><c>      4.00000000</c><c>  PAW_PBE C 08Apr2002                   </c></rc>
    <rc><c>   1</c><c>Al</c><c>     26.98100000</c><c>      3.00000000</c><c>  PAW_PBE Al 04Jan2001                  </c></rc>
    <rc><c>  54</c><c>S </c><c>     32.06600000</c><c>      6.00000000</c><c>  PAW_PBE S 06Sep2000                   </c></rc>
    <rc><c>   4</c><c>Cl</c><c>     35.45300000</c><c>      7.00000000</c><c>  PAW_PBE Cl 06Sep2000                  </c></rc>
    <rc><c>  27</c><c>Cu</c><c>     63.54600000</c><c>     11.00000000</c><c>  PAW_PBE Cu 22Jun2005                  </c></rc>
   </set>
  </array>
 </atominfo>
 <structure name="initialpos" >
  <crystal>
   <varray name="basis" >
    <v>      26.26650047       0.00000000       0.00000000 </v>
    <v>     -13.13288029      22.74974710       0.00000000 </v>
    <v>       0.00000000       0.00000000      20.20179939 </v>
   </varray>
   <i name="volume">  12071.71134534 </i>
   <varray name="rec_basis" >
    <v>       0.03807131       0.02197765       0.00000000 </v>
    <v>       0.00000000       0.04395653       0.00000000 </v>
    <v>       0.00000000       0.00000000       0.04950054 </v>
   </varray>
  </crystal>
  <varray name="positions" >
   <v>       0.02973097       0.30214115       0.50015103 </v>
   <v>       0.02977220       0.06199104       0.50017785 </v>
   <v>       0.27013248       0.30212592       0.50007473 </v>
   <v>       0.06085938       0.03095933       0.50031131 </v>
   <v>       0.30122972       0.27106102       0.50043172 </v>
   <v>       0.30116551       0.03113315       0.50048396 </v>
   <v>       0.36336571       0.30212743       0.50111805 </v>
   <v>       0.36330005       0.06221528       0.50135753 </v>
   <v>       0.60311637       0.30203098       0.50962047 </v>
   <v>       0.39440104       0.03115519       0.50134861 </v>
   <v>       0.63423121       0.27093760       0.50998030 </v>
   <v>       0.63428822       0.03101831       0.50083421 </v>
   <v>       0.69645409       0.30203302       0.50798661 </v>
   <v>       0.69646557       0.06211775       0.50082650 </v>
   <v>       0.93649263       0.30209738       0.50109763 </v>
   <v>       0.72751500       0.03104199       0.50030905 </v>
   <v>       0.96761298       0.27109524       0.50041121 </v>
   <v>       0.96764552       0.03092169       0.50029074 </v>
   <v>       0.02971625       0.63541184       0.50025626 </v>
   <v>       0.02969026       0.39532213       0.50039454 </v>
   <v>       0.26992393       0.63546798       0.50027247 </v>
   <v>       0.06080157       0.36429751       0.50014249 </v>
   <v>       0.30100841       0.60442203       0.50016648 </v>
   <v>       0.30120374       0.36428123       0.50008813 </v>
   <v>       0.36315732       0.63550170       0.50030517 </v>
   <v>       0.36337062       0.39536509       0.50042983 </v>
   <v>       0.60321625       0.63521484       0.50055550 </v>
   <v>       0.39445798       0.36431805       0.50110365 </v>
   <v>       0.63433645       0.60418276       0.50157990 </v>
   <v>       0.63428635       0.36432648       0.51022977 </v>
   <v>       0.69650690       0.63529098       0.50157093 </v>
   <v>       0.69655987       0.39549061       0.50969173 </v>
   <v>       0.93645703       0.63536420       0.50076891 </v>
   <v>       0.72764415       0.36441043       0.50878026 </v>
   <v>       0.96757496       0.60429695       0.50076065 </v>
   <v>       0.96758210       0.36429444       0.50109321 </v>
   <v>       0.02978998       0.96880120       0.50019827 </v>
   <v>       0.02969034       0.72862294       0.50012406 </v>
   <v>       0.27008470       0.96897767       0.50010520 </v>
   <v>       0.06079552       0.69756735       0.50013401 </v>
   <v>       0.30117069       0.93793755       0.50008638 </v>
   <v>       0.30100017       0.69764133       0.50017453 </v>
   <v>       0.36333653       0.96903824       0.50041833 </v>
   <v>       0.36312935       0.72869975       0.50027853 </v>
   <v>       0.60324691       0.96890051       0.50029938 </v>
   <v>       0.39423315       0.69766442       0.50018145 </v>
   <v>       0.63430882       0.93781949       0.50013817 </v>
   <v>       0.63428486       0.69740255       0.50010646 </v>
   <v>       0.69646013       0.96889995       0.50015885 </v>
   <v>       0.69644037       0.72849820       0.50006801 </v>
   <v>       0.93656581       0.96875783       0.50018485 </v>
   <v>       0.72756410       0.69742433       0.50050221 </v>
   <v>       0.96765757       0.93773300       0.50029637 </v>
   <v>       0.96754765       0.69752350       0.50028965 </v>
   <v>       0.65605021       0.33505700       0.71186064 </v>
   <v>       0.06784454       0.13811136       0.49968609 </v>
   <v>       0.19399436       0.26408546       0.49982067 </v>
   <v>       0.13697596       0.06901554       0.50078959 </v>
   <v>       0.26312472       0.19499522       0.49999731 </v>
   <v>       0.26307520       0.06912560       0.49974294 </v>
   <v>       0.40155454       0.26421473       0.50168620 </v>
   <v>       0.40147380       0.13832747       0.50212547 </v>
   <v>       0.52755800       0.26430470       0.50635097 </v>
   <v>       0.47053276       0.06933101       0.50222831 </v>
   <v>       0.59648475       0.19534626       0.51300130 </v>
   <v>       0.59632433       0.06921325       0.50119774 </v>
   <v>       0.73418889       0.26430059       0.50273602 </v>
   <v>       0.73438980       0.13825991       0.50110430 </v>
   <v>       0.86034376       0.26414006       0.50171800 </v>
   <v>       0.80361042       0.06903500       0.49972646 </v>
   <v>       0.92960047       0.19499196       0.49987182 </v>
   <v>       0.92958426       0.06897485       0.50074442 </v>
   <v>       0.06781390       0.59743709       0.49957133 </v>
   <v>       0.06776827       0.47142268       0.49977747 </v>
   <v>       0.19382673       0.59742679       0.50072312 </v>
   <v>       0.13697144       0.40235846       0.49996379 </v>
   <v>       0.26297818       0.52830726       0.49971737 </v>
   <v>       0.26312362       0.40232679       0.49982765 </v>
   <v>       0.40120611       0.59746145       0.50085839 </v>
   <v>       0.40132964       0.47142561       0.49994928 </v>
   <v>       0.52718920       0.59725336       0.49964782 </v>
   <v>       0.47058043       0.40225875       0.50160440 </v>
   <v>       0.59642414       0.52807422       0.50253738 </v>
   <v>       0.59644582       0.40207679       0.51112113 </v>
   <v>       0.73447281       0.59715416       0.50264714 </v>
   <v>       0.73442112       0.47112674       0.50896247 </v>
   <v>       0.86034395       0.59718259       0.50101022 </v>
   <v>       0.80328017       0.40218217       0.50864522 </v>
   <v>       0.92941278       0.52817631       0.50098748 </v>
   <v>       0.92938402       0.40224753       0.50171905 </v>
   <v>       0.06787949       0.93077642       0.49974379 </v>
   <v>       0.06776099       0.80475167       0.50012311 </v>
   <v>       0.19393970       0.93089727       0.49983125 </v>
   <v>       0.13693192       0.73566552       0.50020719 </v>
   <v>       0.26309389       0.86179591       0.49975634 </v>
   <v>       0.26295572       0.73570197       0.49974778 </v>
   <v>       0.40133752       0.93096149       0.49948266 </v>
   <v>       0.40117091       0.80480783       0.50066490 </v>
   <v>       0.52715949       0.93083857       0.49969136 </v>
   <v>       0.47033139       0.73569553       0.49975718 </v>
   <v>       0.59625943       0.86167729       0.50007005 </v>
   <v>       0.59624091       0.73546196       0.49971231 </v>
   <v>       0.73450795       0.93079059       0.50026614 </v>
   <v>       0.73446111       0.80461069       0.49963979 </v>
   <v>       0.86044863       0.93068549       0.49971344 </v>
   <v>       0.80359618       0.73551683       0.49962198 </v>
   <v>       0.92961085       0.86162564       0.50066278 </v>
   <v>       0.92953723       0.73558485       0.49980828 </v>
   <v>       0.06786389       0.26411872       0.50005394 </v>
   <v>       0.72191064       0.31823683       0.66807465 </v>
   <v>       0.67151775       0.41895606       0.67340024 </v>
   <v>       0.57039189       0.26618257       0.67872256 </v>
   <v>       0.66101374       0.33558806       0.81753783 </v>
   <v>       0.49913666       0.33323626       0.50673142 </v>
   <v>       0.99872339       0.16653257       0.50004443 </v>
   <v>       0.83199155       0.16658206       0.50138336 </v>
   <v>       0.83170414       0.33315596       0.50582940 </v>
   <v>       0.33217956       0.49993103       0.50018444 </v>
   <v>       0.16538491       0.49991230       0.50007141 </v>
   <v>       0.16539825       0.66653873       0.50014881 </v>
   <v>       0.66542543       0.49949289       0.50844226 </v>
   <v>       0.49888283       0.49975953       0.50179992 </v>
   <v>       0.49868476       0.66643166       0.50013958 </v>
   <v>       0.99864925       0.49985291       0.50133731 </v>
   <v>       0.83174996       0.49957630       0.50574495 </v>
   <v>       0.83200465       0.66638460       0.50162481 </v>
   <v>       0.33217260       0.83333434       0.50015851 </v>
   <v>       0.16540958       0.83327981       0.49999335 </v>
   <v>       0.16544910       0.99997802       0.50013313 </v>
   <v>       0.66535157       0.83314757       0.49992992 </v>
   <v>       0.49867208       0.83324162       0.50021145 </v>
   <v>       0.49883358       0.00007905       0.50148542 </v>
   <v>       0.99866754       0.83320741       0.50021166 </v>
   <v>       0.83204241       0.83310772       0.50010138 </v>
   <v>       0.83206181       0.99987081       0.50011098 </v>
   <v>       0.33230710       0.16666086       0.50177871 </v>
   <v>       0.16543924       0.16651358       0.50013810 </v>
   <v>       0.16548245       0.33322418       0.49989399 </v>
   <v>       0.66527504       0.16680907       0.50553913 </v>
   <v>       0.49907858       0.16690505       0.50772734 </v>
  </varray>
 </structure>
 <calculation>
  <scstep>
   <time name="dav">  446.61  452.32</time>
   <time name="total">  447.19  452.94</time>
   <energy>
    <i name="alphaZ">    315.09161757 </i>
    <i name="ewald"> 108113.28606731 </i>
    <i name="hartreedc">-162681.64148586 </i>
    <i name="XCdc">   2664.89253163 </i>
    <i name="pawpsdc">  52118.65182442 </i>
    <i name="pawaedc"> -54801.79846914 </i>
    <i name="eentropy">     -0.11197746 </i>
    <i name="bandstr">    -32.08855040 </i>
    <i name="atom">  62143.14740716 </i>
    <i name="e_fr_energy">   7839.42896523 </i>
    <i name="e_wo_entrp">   7839.54094269 </i>
    <i name="e_0_energy">   7839.48495396 </i>
   </energy>
  </scstep>
  <scstep>
   <time name="dav">  526.78  533.44</time>
   <time name="total">  526.78  533.45</time>
   <energy>
    <i name="e_fr_energy">   1011.11044473 </i>
    <i name="e_wo_entrp">   1011.14193082 </i>
    <i name="e_0_energy">   1011.12618777 </i>
   </energy>
  </scstep>
  <scstep>
   <time name="dav">  603.43  611.16</time>
   <time name="total">  603.43  611.17</time>
   <energy>
    <i name="e_fr_energy">   -736.49237651 </i>
    <i name="e_wo_entrp">   -736.39216100 </i>
    <i name="e_0_energy">   -736.44226875 </i>
   </energy>
  </scstep>
  <scstep>
   <time name="dav">  656.91  665.21</time>
   <time name="total">  656.91  665.21</time>
   <energy>
    <i name="e_fr_energy">   -903.52661022 </i>
    <i name="e_wo_entrp">   -903.39732408 </i>
    <i name="e_0_energy">   -903.46196715 </i>
   </energy>
  </scstep>
  <scstep>
   <time name="dav">  677.56  686.13</time>
   <time name="total">  681.77  690.41</time>
   <energy>
    <i name="e_fr_energy">   -909.95540466 </i>
    <i name="e_wo_entrp">   -909.75228496 </i>
    <i name="e_0_energy">   -909.85384481 </i>
   </energy>
  </scstep>
  <scstep>
   <time name="diag">   22.63   23.02</time>
   <time name="diis">  379.16  384.35</time>
   <time name="orth">    4.58    4.63</time>
   <time name="total">  411.07  416.79</time>
   <energy>
    <i name="e_fr_energy">   -866.05444335 </i>
    <i name="e_wo_entrp">   -865.99114052 </i>
    <i name="e_0_energy">   -866.02279194 </i>
   </energy>
  </scstep>
  <scstep>
   <time name="diag">   22.61   23.00</time>
   <time name="diis">  326.20  330.71</time>
   <time name="orth">    4.57    4.62</time>
   <time name="total">  358.06  363.09</time>
   <energy>
    <i name="e_fr_energy">   -590.24377418 </i>
    <i name="e_wo_entrp">   -590.22958900 </i>
    <i name="e_0_energy">   -590.23668159 </i>
   </energy>
  </scstep>
  <scstep>
   <time name="diag">   22.59   22.99</time>
   <time name="diis">  358.79  363.75</time>
   <time name="orth">    4.58    4.62</time>
   <time name="total">  390.67  396.16</time>
   <energy>
    <i name="e_fr_energy">   -651.01535260 </i>
    <i name="e_wo_entrp">   -650.95400909 </i>
    <i name="e_0_energy">   -650.98468084 </i>
   </energy>
  </scstep>
  <scstep>
   <time name="diag">   22.59   22.99</time>
   <time name="diis">  345.06  349.87</time>
   <time name="orth">    4.57    4.62</time>
   <time name="total">  376.94  382.26</time>
   <energy>
    <i name="e_fr_energy">   -608.91390728 </i>
    <i name="e_wo_entrp">   -608.83657366 </i>
    <i name="e_0_energy">   -608.87524047 </i>
   </energy>
  </scstep>
  <scstep>
   <time name="diag">   22.58   22.97</time>
   <time name="diis">  331.39  336.01</time>
   <time name="orth">    4.60    4.65</time>
   <time name="total">  363.29  368.42</time>
   <energy>
    <i name="e_fr_energy">   -629.89550303 </i>
    <i name="e_wo_entrp">   -629.83498118 </i>
    <i name="e_0_energy">   -629.86524211 </i>
   </energy>
  </scstep>
  <scstep>
   <time name="diag">   22.77   23.18</time>
   <time name="diis">  332.07  336.67</time>
   <time name="orth">    4.59    4.64</time>
   <time name="total">  364.19  369.32</time>
   <energy>
    <i name="e_fr_energy">   -688.27207609 </i>
    <i name="e_wo_entrp">   -688.22146673 </i>
    <i name="e_0_energy">   -688.24677141 </i>
   </energy>
  </scstep>
  <scstep>
   <time name="diag">   22.72   23.13</time>
   <time name="diis">  343.26  348.03</time>
   <time name="orth">    4.59    4.63</time>
   <time name="total">  375.33  380.63</time>
   <energy>
    <i name="e_fr_energy">   -724.61311488 </i>
    <i name="e_wo_entrp">   -724.56420465 </i>
    <i name="e_0_energy">   -724.58865977 </i>
   </energy>
  </scstep>
  <scstep>
   <time name="diag">   22.74   23.16</time>
   <time name="diis">  337.19  341.87</time>
   <time name="orth">    4.58    4.63</time>
   <time name="total">  369.24  374.47</time>
   <energy>
    <i name="e_fr_energy">   -768.60539311 </i>
    <i name="e_wo_entrp">   -768.53789598 </i>
    <i name="e_0_energy">   -768.57164454 </i>
   </energy>
  </scstep>
  <scstep>
   <time name="diag">   22.69   23.11</time>
   <time name="diis">  349.48  354.35</time>
   <time name="orth">    4.72    4.78</time>
   <time name="total">  381.67  387.09</time>
   <energy>
    <i name="e_fr_energy">   -790.56319501 </i>
    <i name="e_wo_entrp">   -790.49927480 </i>
    <i name="e_0_energy">   -790.53123491 </i>
   </energy>
  </scstep>
  <scstep>
   <time name="diag">   22.60   23.01</time>
   <time name="diis">  338.27  343.00</time>
   <time name="orth">    4.59    4.63</time>
   <time name="total">  370.22  375.48</time>
   <energy>
    <i name="e_fr_energy">   -800.81178895 </i>
    <i name="e_wo_entrp">   -800.73505813 </i>
    <i name="e_0_energy">   -800.77342354 </i>
   </energy>
  </scstep>
  <scstep>
   <time name="diag">   22.71   23.10</time>
   <time name="diis">  334.82  339.49</time>
   <time name="orth">    4.60    4.64</time>
   <time name="total">  366.88  372.07</time>
   <energy>
    <i name="e_fr_energy">   -807.56208582 </i>
    <i name="e_wo_entrp">   -807.48866937 </i>
    <i name="e_0_energy">   -807.52537760 </i>
   </energy>
  </scstep>
  <scstep>
   <time name="diag">   22.70   23.09</time>
   <time name="diis">  333.08  337.76</time>
   <time name="orth">    4.59    4.64</time>
   <time name="total">  365.14  370.33</time>
   <energy>
    <i name="e_fr_energy">   -814.99882495 </i>
    <i name="e_wo_entrp">   -814.93330356 </i>
    <i name="e_0_energy">   -814.96606425 </i>
   </energy>
  </scstep>
  <scstep>
   <time name="diag">   22.69   23.09</time>
   <time name="diis">  348.89  353.76</time>
   <time name="orth">    4.58    4.63</time>
   <time name="total">  380.94  386.32</time>
   <energy>
    <i name="e_fr_energy">   -818.76870879 </i>
    <i name="e_wo_entrp">   -818.70757484 </i>
    <i name="e_0_energy">   -818.73814181 </i>
   </energy>
  </scstep>
  <scstep>
   <time name="diag">   22.81   23.22</time>
   <time name="diis">  361.96  367.02</time>
   <time name="orth">    4.59    4.64</time>
   <time name="total">  394.14  399.73</time>
   <energy>
    <i name="e_fr_energy">   -822.57045409 </i>
    <i name="e_wo_entrp">   -822.50204972 </i>
    <i name="e_0_energy">   -822.53625190 </i>
   </energy>
  </scstep>
  <scstep>
   <time name="diag">   22.77   23.16</time>
   <time name="diis">  361.08  366.16</time>
   <time name="orth">    4.58    4.63</time>
   <time name="total">  393.22  398.81</time>
   <energy>
    <i name="e_fr_energy">   -824.13157674 </i>
    <i name="e_wo_entrp">   -824.05440596 </i>
    <i name="e_0_energy">   -824.09299135 </i>
   </energy>
  </scstep>
  <scstep>
   <time name="diag">   22.67   23.08</time>
   <time name="diis">  375.08  380.36</time>
   <time name="orth">    4.58    4.63</time>
   <time name="total">  407.19  413.01</time>
   <energy>
    <i name="e_fr_energy">   -824.68962729 </i>
    <i name="e_wo_entrp">   -824.60549301 </i>
    <i name="e_0_energy">   -824.64756015 </i>
   </energy>
  </scstep>
  <scstep>
   <time name="diag">   22.61   23.01</time>
   <time name="diis">  356.65  361.68</time>
   <time name="orth">    4.58    4.63</time>
   <time name="total">  388.70  394.26</time>
   <energy>
    <i name="e_fr_energy">   -825.40461260 </i>
    <i name="e_wo_entrp">   -825.31232775 </i>
    <i name="e_0_energy">   -825.35847018 </i>
   </energy>
  </scstep>
  <scstep>
   <time name="diag">   22.56   22.97</time>
   <time name="diis">  384.13  389.61</time>
   <time name="orth">    4.58    4.63</time>
   <time name="total">  416.15  422.16</time>
   <energy>
    <i name="e_fr_energy">   -825.94185953 </i>
    <i name="e_wo_entrp">   -825.84697504 </i>
    <i name="e_0_energy">   -825.89441729 </i>
   </energy>
  </scstep>
  <scstep>
   <time name="diag">   22.72   23.15</time>
   <time name="diis">  351.18  356.17</time>
   <time name="orth">    4.58    4.62</time>
   <time name="total">  383.35  388.91</time>
   <energy>
    <i name="e_fr_energy">   -826.68665617 </i>
    <i name="e_wo_entrp">   -826.59210877 </i>
    <i name="e_0_energy">   -826.63938247 </i>
   </energy>
  </scstep>
  <scstep>
   <time name="diag">   22.68   23.10</time>
   <time name="diis">  353.93  358.95</time>
   <time name="orth">    4.60    4.66</time>
   <time name="total">  386.06  391.63</time>
   <energy>
    <i name="e_fr_energy">   -827.17016977 </i>
    <i name="e_wo_entrp">   -827.07518338 </i>
    <i name="e_0_energy">   -827.12267657 </i>
   </energy>
  </scstep>
  <scstep>
   <time name="diag">   22.55   22.96</time>
   <time name="diis">  354.45  359.49</time>
   <time name="orth">    4.59    4.64</time>
   <time name="total">  386.37  391.94</time>
   <energy>
    <i name="e_fr_energy">   -827.63169998 </i>
    <i name="e_wo_entrp">   -827.53609151 </i>
    <i name="e_0_energy">   -827.58389575 </i>
   </energy>
  </scstep>
  <scstep>
   <time name="diag">   22.54   22.95</time>
   <time name="diis">  352.81  357.85</time>
   <time name="orth">    4.58    4.63</time>
   <time name="total">  384.71  390.28</time>
   <energy>
    <i name="e_fr_energy">   -827.85717776 </i>
    <i name="e_wo_entrp">   -827.76180733 </i>
    <i name="e_0_energy">   -827.80949255 </i>
   </energy>
  </scstep>
  <scstep>
   <time name="diag">   22.55   22.96</time>
   <time name="diis">  343.25  348.16</time>
   <time name="orth">    4.58    4.63</time>
   <time name="total">  375.15  380.60</time>
   <energy>
    <i name="e_fr_energy">   -828.06885013 </i>
    <i name="e_wo_entrp">   -827.97321731 </i>
    <i name="e_0_energy">   -828.02103372 </i>
   </energy>
  </scstep>
  <scstep>
   <time name="diag">   22.52   22.93</time>
   <time name="diis">  348.54  353.53</time>
   <time name="orth">    4.57    4.62</time>
   <time name="total">  380.42  385.95</time>
   <energy>
    <i name="e_fr_energy">   -828.22645378 </i>
    <i name="e_wo_entrp">   -828.13052582 </i>
    <i name="e_0_energy">   -828.17848980 </i>
   </energy>
  </scstep>
  <scstep>
   <time name="diag">   22.67   23.10</time>
   <time name="diis">  342.22  347.07</time>
   <time name="orth">    4.58    4.63</time>
   <time name="total">  374.26  379.67</time>
   <energy>
    <i name="e_fr_energy">   -828.34799481 </i>
    <i name="e_wo_entrp">   -828.25245205 </i>
    <i name="e_0_energy">   -828.30022343 </i>
   </energy>
  </scstep>
  <scstep>
   <time name="diag">   22.70   23.10</time>
   <time name="diis">  360.08  365.15</time>
   <time name="orth">    4.58    4.63</time>
   <time name="total">  392.24  397.83</time>
   <energy>
    <i name="e_fr_energy">   -828.37950703 </i>
    <i name="e_wo_entrp">   -828.28388234 </i>
    <i name="e_0_energy">   -828.33169469 </i>
   </energy>
  </scstep>
  <scstep>
   <time name="diag">   22.56   22.95</time>
   <time name="diis">  345.22  350.10</time>
   <time name="orth">    4.58    4.63</time>
   <time name="total">  377.24  382.62</time>
   <energy>
    <i name="e_fr_energy">   -828.38649505 </i>
    <i name="e_wo_entrp">   -828.29070108 </i>
    <i name="e_0_energy">   -828.33859806 </i>
   </energy>
  </scstep>
  <scstep>
   <time name="diag">   22.61   23.00</time>
   <time name="diis">  341.56  346.36</time>
   <time name="orth">    4.58    4.63</time>
   <time name="total">  373.63  378.94</time>
   <energy>
    <i name="e_fr_energy">   -828.39024724 </i>
    <i name="e_wo_entrp">   -828.29442562 </i>
    <i name="e_0_energy">   -828.34233643 </i>
   </energy>
  </scstep>
  <scstep>
   <time name="diag">   22.65   23.04</time>
   <time name="diis">  325.63  330.23</time>
   <time name="orth">    4.57    4.62</time>
   <time name="total">  357.74  362.84</time>
   <energy>
    <i name="e_fr_energy">   -828.39145689 </i>
    <i name="e_wo_entrp">   -828.29567953 </i>
    <i name="e_0_energy">   -828.34356821 </i>
   </energy>
  </scstep>
  <scstep>
   <time name="diag">   22.65   23.04</time>
   <time name="diis">  306.01  310.30</time>
   <time name="orth">    4.59    4.64</time>
   <time name="total">  338.14  342.93</time>
   <energy>
    <i name="e_fr_energy">   -828.39189579 </i>
    <i name="e_wo_entrp">   -828.29614330 </i>
    <i name="e_0_energy">   -828.34401954 </i>
   </energy>
  </scstep>
  <scstep>
   <time name="diag">   22.51   22.92</time>
   <time name="diis">  287.90  291.86</time>
   <time name="orth">    4.58    4.63</time>
   <time name="total">  319.81  324.29</time>
   <energy>
    <i name="e_fr_energy">   -828.39213955 </i>
    <i name="e_wo_entrp">   -828.29638343 </i>
    <i name="e_0_energy">   -828.34426149 </i>
   </energy>
  </scstep>
  <scstep>
   <time name="diag">   22.51   22.90</time>
   <time name="diis">  272.70  276.51</time>
   <time name="orth">    4.59    4.63</time>
   <time name="total">  304.61  308.94</time>
   <energy>
    <i name="e_fr_energy">   -828.39239548 </i>
    <i name="e_wo_entrp">   -828.29664745 </i>
    <i name="e_0_energy">   -828.34452147 </i>
   </energy>
  </scstep>
  <scstep>
   <time name="diag">   22.49   22.88</time>
   <time name="diis">  268.17  271.90</time>
   <time name="orth">    4.62    4.67</time>
   <time name="total">  300.11  304.35</time>
   <energy>
    <i name="e_fr_energy">   -828.39293798 </i>
    <i name="e_wo_entrp">   -828.29718576 </i>
    <i name="e_0_energy">   -828.34506187 </i>
   </energy>
  </scstep>
  <scstep>
   <time name="diag">   22.49   22.87</time>
   <time name="diis">  236.27  239.50</time>
   <time name="orth">    4.59    4.64</time>
   <time name="total">  268.18  271.91</time>
   <energy>
    <i name="e_fr_energy">   -828.39319569 </i>
    <i name="e_wo_entrp">   -828.29744276 </i>
    <i name="e_0_energy">   -828.34531922 </i>
   </energy>
  </scstep>
  <scstep>
   <time name="diag">   22.59   22.99</time>
   <time name="diis">  218.54  221.54</time>
   <time name="orth">    4.74    4.79</time>
   <time name="total">  250.70  254.22</time>
   <energy>
    <i name="e_fr_energy">   -828.39346975 </i>
    <i name="e_wo_entrp">   -828.29772590 </i>
    <i name="e_0_energy">   -828.34559782 </i>
   </energy>
  </scstep>
  <scstep>
   <time name="diag">   22.47   22.85</time>
   <time name="diis">  202.07  205.05</time>
   <time name="orth">    4.57    4.62</time>
   <time name="total">  233.93  237.43</time>
   <energy>
    <i name="e_fr_energy">   -828.39361583 </i>
    <i name="e_wo_entrp">   -828.29787159 </i>
    <i name="e_0_energy">   -828.34574371 </i>
   </energy>
  </scstep>
  <scstep>
   <time name="diag">   22.55   22.94</time>
   <time name="diis">  214.84  217.83</time>
   <time name="orth">    4.58    4.63</time>
   <time name="total">  246.90  250.43</time>
   <energy>
    <i name="e_fr_energy">   -828.39390825 </i>
    <i name="e_wo_entrp">   -828.29815615 </i>
    <i name="e_0_energy">   -828.34603220 </i>
   </energy>
  </scstep>
  <scstep>
   <time name="diag">   22.48   22.87</time>
   <time name="diis">  207.71  210.62</time>
   <time name="orth">    4.58    4.63</time>
   <time name="total">  239.71  243.15</time>
   <energy>
    <i name="e_fr_energy">   -828.39406337 </i>
    <i name="e_wo_entrp">   -828.29831055 </i>
    <i name="e_0_energy">   -828.34618696 </i>
   </energy>
  </scstep>
  <scstep>
   <time name="diag">   22.48   22.87</time>
   <time name="diis">  204.71  207.57</time>
   <time name="orth">    4.59    4.63</time>
   <time name="total">  236.63  239.99</time>
   <energy>
    <i name="e_fr_energy">   -828.39415708 </i>
    <i name="e_wo_entrp">   -828.29840376 </i>
    <i name="e_0_energy">   -828.34628042 </i>
   </energy>
  </scstep>
  <scstep>
   <time name="diag">   22.59   22.99</time>
   <time name="diis">  204.37  207.18</time>
   <time name="orth">    4.59    4.64</time>
   <time name="total">  236.41  239.74</time>
   <energy>
    <i name="e_fr_energy">   -828.39421352 </i>
    <i name="e_wo_entrp">   -828.29846004 </i>
    <i name="e_0_energy">   -828.34633678 </i>
   </energy>
  </scstep>
  <scstep>
   <time name="diag">   22.61   22.99</time>
   <time name="diis">  202.41  205.22</time>
   <time name="orth">    4.58    4.63</time>
   <time name="total">  234.43  237.73</time>
   <energy>
    <i name="e_fr_energy">   -828.39424022 </i>
    <i name="e_wo_entrp">   -828.29848555 </i>
    <i name="e_0_energy">   -828.34636289 </i>
   </energy>
  </scstep>
  <scstep>
   <time name="diag">   22.60   22.99</time>
   <time name="diis">  201.03  203.69</time>
   <time name="orth">    4.58    4.63</time>
   <time name="total">  233.03  236.20</time>
   <energy>
    <i name="e_fr_energy">   -828.39425696 </i>
    <i name="e_wo_entrp">   -828.29850132 </i>
    <i name="e_0_energy">   -828.34637914 </i>
   </energy>
  </scstep>
  <scstep>
   <time name="diag">   22.48   22.84</time>
   <time name="diis">  198.01  200.63</time>
   <time name="orth">    4.58    4.62</time>
   <time name="total">  229.90  233.00</time>
   <energy>
    <i name="e_fr_energy">   -828.39426133 </i>
    <i name="e_wo_entrp">   -828.29850639 </i>
    <i name="e_0_energy">   -828.34638386 </i>
   </energy>
  </scstep>
  <scstep>
   <time name="diag">   22.48   22.86</time>
   <time name="diis">  196.16  198.86</time>
   <time name="orth">    4.58    4.63</time>
   <time name="total">  228.07  231.26</time>
   <energy>
    <i name="e_fr_energy">   -828.39426374 </i>
    <i name="e_wo_entrp">   -828.29850926 </i>
    <i name="e_0_energy">   -828.34638650 </i>
   </energy>
  </scstep>
  <scstep>
   <time name="diag">   22.46   22.84</time>
   <time name="diis">  194.09  196.73</time>
   <time name="orth">    4.58    4.63</time>
   <time name="total">  225.95  229.09</time>
   <energy>
    <i name="e_fr_energy">   -828.39426509 </i>
    <i name="e_wo_entrp">   -828.29851104 </i>
    <i name="e_0_energy">   -828.34638807 </i>
   </energy>
  </scstep>
  <scstep>
   <time name="diag">   22.46   22.84</time>
   <time name="diis">  191.34  193.94</time>
   <time name="orth">    4.59    4.64</time>
   <time name="total">  218.96  221.99</time>
   <energy>
    <i name="alphaZ">    315.09161757 </i>
    <i name="ewald"> 108113.28606731 </i>
    <i name="hartreedc">-162960.06659548 </i>
    <i name="XCdc">   2669.72882078 </i>
    <i name="pawpsdc">  98680.01719982 </i>
    <i name="pawaedc">-101436.46267158 </i>
    <i name="eentropy">     -0.09575423 </i>
    <i name="bandstr">  -8353.04035722 </i>
    <i name="atom">  62143.14740716 </i>
    <i name="e_fr_energy">   -828.39426587 </i>
    <i name="e_wo_entrp">   -828.29851165 </i>
    <i name="e_0_energy">   -828.34638876 </i>
   </energy>
  </scstep>
  <structure>
   <crystal>
    <varray name="basis" >
     <v>      26.26650047       0.00000000       0.00000000 </v>
     <v>     -13.13288029      22.74974710       0.00000000 </v>
     <v>       0.00000000       0.00000000      20.20179939 </v>
    </varray>
    <i name="volume">  12071.71134534 </i>
    <varray name="rec_basis" >
     <v>       0.03807131       0.02197765       0.00000000 </v>
     <v>       0.00000000       0.04395653       0.00000000 </v>
     <v>       0.00000000       0.00000000       0.04950054 </v>
    </varray>
   </crystal>
   <varray name="positions" >
    <v>       0.02973097       0.30214115       0.50015103 </v>
    <v>       0.02977220       0.06199104       0.50017785 </v>
    <v>       0.27013248       0.30212592       0.50007473 </v>
    <v>       0.06085938       0.03095933       0.50031131 </v>
    <v>       0.30122972       0.27106102       0.50043172 </v>
    <v>       0.30116551       0.03113315       0.50048396 </v>
    <v>       0.36336571       0.30212743       0.50111805 </v>
    <v>       0.36330005       0.06221528       0.50135753 </v>
    <v>       0.60311637       0.30203098       0.50962047 </v>
    <v>       0.39440104       0.03115519       0.50134861 </v>
    <v>       0.63423121       0.27093760       0.50998030 </v>
    <v>       0.63428822       0.03101831       0.50083421 </v>
    <v>       0.69645409       0.30203302       0.50798661 </v>
    <v>       0.69646557       0.06211775       0.50082650 </v>
    <v>       0.93649263       0.30209738       0.50109763 </v>
    <v>       0.72751500       0.03104199       0.50030905 </v>
    <v>       0.96761298       0.27109524       0.50041121 </v>
    <v>       0.96764552       0.03092169       0.50029074 </v>
    <v>       0.02971625       0.63541184       0.50025626 </v>
    <v>       0.02969026       0.39532213       0.50039454 </v>
    <v>       0.26992393       0.63546798       0.50027247 </v>
    <v>       0.06080157       0.36429751       0.50014249 </v>
    <v>       0.30100841       0.60442203       0.50016648 </v>
    <v>       0.30120374       0.36428123       0.50008813 </v>
    <v>       0.36315732       0.63550170       0.50030517 </v>
    <v>       0.36337062       0.39536509       0.50042983 </v>
    <v>       0.60321625       0.63521484       0.50055550 </v>
    <v>       0.39445798       0.36431805       0.50110365 </v>
    <v>       0.63433645       0.60418276       0.50157990 </v>
    <v>       0.63428635       0.36432648       0.51022977 </v>
    <v>       0.69650690       0.63529098       0.50157093 </v>
    <v>       0.69655987       0.39549061       0.50969173 </v>
    <v>       0.93645703       0.63536420       0.50076891 </v>
    <v>       0.72764415       0.36441043       0.50878026 </v>
    <v>       0.96757496       0.60429695       0.50076065 </v>
    <v>       0.96758210       0.36429444       0.50109321 </v>
    <v>       0.02978998       0.96880120       0.50019827 </v>
    <v>       0.02969034       0.72862294       0.50012406 </v>
    <v>       0.27008470       0.96897767       0.50010520 </v>
    <v>       0.06079552       0.69756735       0.50013401 </v>
    <v>       0.30117069       0.93793755       0.50008638 </v>
    <v>       0.30100017       0.69764133       0.50017453 </v>
    <v>       0.36333653       0.96903824       0.50041833 </v>
    <v>       0.36312935       0.72869975       0.50027853 </v>
    <v>       0.60324691       0.96890051       0.50029938 </v>
    <v>       0.39423315       0.69766442       0.50018145 </v>
    <v>       0.63430882       0.93781949       0.50013817 </v>
    <v>       0.63428486       0.69740255       0.50010646 </v>
    <v>       0.69646013       0.96889995       0.50015885 </v>
    <v>       0.69644037       0.72849820       0.50006801 </v>
    <v>       0.93656581       0.96875783       0.50018485 </v>
    <v>       0.72756410       0.69742433       0.50050221 </v>
    <v>       0.96765757       0.93773300       0.50029637 </v>
    <v>       0.96754765       0.69752350       0.50028965 </v>
    <v>       0.65605021       0.33505700       0.71186064 </v>
    <v>       0.06784454       0.13811136       0.49968609 </v>
    <v>       0.19399436       0.26408546       0.49982067 </v>
    <v>       0.13697596       0.06901554       0.50078959 </v>
    <v>       0.26312472       0.19499522       0.49999731 </v>
    <v>       0.26307520       0.06912560       0.49974294 </v>
    <v>       0.40155454       0.26421473       0.50168620 </v>
    <v>       0.40147380       0.13832747       0.50212547 </v>
    <v>       0.52755800       0.26430470       0.50635097 </v>
    <v>       0.47053276       0.06933101       0.50222831 </v>
    <v>       0.59648475       0.19534626       0.51300130 </v>
    <v>       0.59632433       0.06921325       0.50119774 </v>
    <v>       0.73418889       0.26430059       0.50273602 </v>
    <v>       0.73438980       0.13825991       0.50110430 </v>
    <v>       0.86034376       0.26414006       0.50171800 </v>
    <v>       0.80361042       0.06903500       0.49972646 </v>
    <v>       0.92960047       0.19499196       0.49987182 </v>
    <v>       0.92958426       0.06897485       0.50074442 </v>
    <v>       0.06781390       0.59743709       0.49957133 </v>
    <v>       0.06776827       0.47142268       0.49977747 </v>
    <v>       0.19382673       0.59742679       0.50072312 </v>
    <v>       0.13697144       0.40235846       0.49996379 </v>
    <v>       0.26297818       0.52830726       0.49971737 </v>
    <v>       0.26312362       0.40232679       0.49982765 </v>
    <v>       0.40120611       0.59746145       0.50085839 </v>
    <v>       0.40132964       0.47142561       0.49994928 </v>
    <v>       0.52718920       0.59725336       0.49964782 </v>
    <v>       0.47058043       0.40225875       0.50160440 </v>
    <v>       0.59642414       0.52807422       0.50253738 </v>
    <v>       0.59644582       0.40207679       0.51112113 </v>
    <v>       0.73447281       0.59715416       0.50264714 </v>
    <v>       0.73442112       0.47112674       0.50896247 </v>
    <v>       0.86034395       0.59718259       0.50101022 </v>
    <v>       0.80328017       0.40218217       0.50864522 </v>
    <v>       0.92941278       0.52817631       0.50098748 </v>
    <v>       0.92938402       0.40224753       0.50171905 </v>
    <v>       0.06787949       0.93077642       0.49974379 </v>
    <v>       0.06776099       0.80475167       0.50012311 </v>
    <v>       0.19393970       0.93089727       0.49983125 </v>
    <v>       0.13693192       0.73566552       0.50020719 </v>
    <v>       0.26309389       0.86179591       0.49975634 </v>
    <v>       0.26295572       0.73570197       0.49974778 </v>
    <v>       0.40133752       0.93096149       0.49948266 </v>
    <v>       0.40117091       0.80480783       0.50066490 </v>
    <v>       0.52715949       0.93083857       0.49969136 </v>
    <v>       0.47033139       0.73569553       0.49975718 </v>
    <v>       0.59625943       0.86167729       0.50007005 </v>
    <v>       0.59624091       0.73546196       0.49971231 </v>
    <v>       0.73450795       0.93079059       0.50026614 </v>
    <v>       0.73446111       0.80461069       0.49963979 </v>
    <v>       0.86044863       0.93068549       0.49971344 </v>
    <v>       0.80359618       0.73551683       0.49962198 </v>
    <v>       0.92961085       0.86162564       0.50066278 </v>
    <v>       0.92953723       0.73558485       0.49980828 </v>
    <v>       0.06786389       0.26411872       0.50005394 </v>
    <v>       0.72191064       0.31823683       0.66807465 </v>
    <v>       0.67151775       0.41895606       0.67340024 </v>
    <v>       0.57039189       0.26618257       0.67872256 </v>
    <v>       0.66101374       0.33558806       0.81753783 </v>
    <v>       0.49913666       0.33323626       0.50673142 </v>
    <v>       0.99872339       0.16653257       0.50004443 </v>
    <v>       0.83199155       0.16658206       0.50138336 </v>
    <v>       0.83170414       0.33315596       0.50582940 </v>
    <v>       0.33217956       0.49993103       0.50018444 </v>
    <v>       0.16538491       0.49991230       0.50007141 </v>
    <v>       0.16539825       0.66653873       0.50014881 </v>
    <v>       0.66542543       0.49949289       0.50844226 </v>
    <v>       0.49888283       0.49975953       0.50179992 </v>
    <v>       0.49868476       0.66643166       0.50013958 </v>
    <v>       0.99864925       0.49985291       0.50133731 </v>
    <v>       0.83174996       0.49957630       0.50574495 </v>
    <v>       0.83200465       0.66638460       0.50162481 </v>
    <v>       0.33217260       0.83333434       0.50015851 </v>
    <v>       0.16540958       0.83327981       0.49999335 </v>
    <v>       0.16544910       0.99997802       0.50013313 </v>
    <v>       0.66535157       0.83314757       0.49992992 </v>
    <v>       0.49867208       0.83324162       0.50021145 </v>
    <v>       0.49883358       0.00007905       0.50148542 </v>
    <v>       0.99866754       0.83320741       0.50021166 </v>
    <v>       0.83204241       0.83310772       0.50010138 </v>
    <v>       0.83206181       0.99987081       0.50011098 </v>
    <v>       0.33230710       0.16666086       0.50177871 </v>
    <v>       0.16543924       0.16651358       0.50013810 </v>
    <v>       0.16548245       0.33322418       0.49989399 </v>
    <v>       0.66527504       0.16680907       0.50553913 </v>
    <v>       0.49907858       0.16690505       0.50772734 </v>
   </varray>
  </structure>
  <varray name="forces" >
   <v>       0.02367574       0.02059843       0.00021538 </v>
   <v>       0.00306978       0.01448611      -0.00021520 </v>
   <v>       0.00978712       0.00165333      -0.00019626 </v>
   <v>       0.01073709      -0.02349376      -0.00013065 </v>
   <v>      -0.03755224       0.01403199      -0.00108763 </v>
   <v>      -0.01218868      -0.02766213      -0.00202997 </v>
   <v>       0.03415303       0.02758887      -0.00151230 </v>
   <v>       0.02640161       0.03031787       0.00028177 </v>
   <v>      -0.00182219       0.02215464      -0.02176714 </v>
   <v>       0.01036276       0.03009078       0.00044891 </v>
   <v>       0.02353759       0.01195710      -0.00486478 </v>
   <v>       0.00111635       0.05408667      -0.00228636 </v>
   <v>      -0.01196007       0.04094373      -0.00947483 </v>
   <v>      -0.05104750       0.02800286      -0.00132840 </v>
   <v>      -0.05063273       0.04878909       0.00012370 </v>
   <v>       0.02425990      -0.02029561      -0.00121596 </v>
   <v>       0.00582463      -0.02905689      -0.00020695 </v>
   <v>      -0.01294243      -0.01795265       0.00012172 </v>
   <v>       0.00222014       0.02253816      -0.00250382 </v>
   <v>       0.02290980       0.02443602      -0.00158413 </v>
   <v>       0.00241853       0.03054929      -0.00013985 </v>
   <v>       0.01911017      -0.01130832      -0.00001275 </v>
   <v>       0.01071506       0.00252047      -0.00026326 </v>
   <v>       0.01446339      -0.00018684      -0.00029736 </v>
   <v>      -0.01507604       0.01763990      -0.00010285 </v>
   <v>      -0.02986542      -0.01659430      -0.00230980 </v>
   <v>       0.02490910       0.05888139      -0.00262932 </v>
   <v>       0.03174711      -0.02662541      -0.00234625 </v>
   <v>       0.01035220      -0.01823009      -0.00000374 </v>
   <v>      -0.00916707      -0.00367915      -0.01882052 </v>
   <v>       0.00825098      -0.02631037       0.00148751 </v>
   <v>       0.00905728      -0.01188105      -0.01520582 </v>
   <v>       0.01085551      -0.02075046      -0.00246414 </v>
   <v>      -0.00293952      -0.04507639      -0.00700290 </v>
   <v>      -0.03586082      -0.00842609      -0.00229173 </v>
   <v>      -0.05324245      -0.04723720      -0.00067592 </v>
   <v>       0.01032882       0.01796313      -0.00001039 </v>
   <v>       0.00690009      -0.00721368      -0.00013505 </v>
   <v>      -0.01384936       0.02139808      -0.00043113 </v>
   <v>      -0.00659306      -0.01077871       0.00062963 </v>
   <v>       0.01895251      -0.01096265      -0.00067995 </v>
   <v>       0.00187651      -0.02780938      -0.00045571 </v>
   <v>      -0.01758351      -0.02270957      -0.00258661 </v>
   <v>       0.00635273       0.00305741      -0.00065936 </v>
   <v>       0.00070354      -0.01364898      -0.00278885 </v>
   <v>      -0.00680835      -0.02701481      -0.00020883 </v>
   <v>       0.01077498      -0.00364991      -0.00016326 </v>
   <v>       0.01928963      -0.03061871      -0.00024019 </v>
   <v>       0.00167417      -0.00617988       0.00081794 </v>
   <v>       0.02611224      -0.02537666      -0.00049769 </v>
   <v>      -0.00967992       0.02662966      -0.00023565 </v>
   <v>      -0.06461158       0.01679003      -0.00146513 </v>
   <v>       0.00524380      -0.01018104      -0.00060622 </v>
   <v>       0.01279430      -0.00357081      -0.00201823 </v>
   <v>       0.00363273      -0.02189029      -0.03117716 </v>
   <v>       0.00078988       0.00133381      -0.00075880 </v>
   <v>       0.00802850       0.00951418      -0.00142502 </v>
   <v>      -0.00082763      -0.00036236      -0.00078148 </v>
   <v>       0.00217461      -0.01970744       0.00716550 </v>
   <v>      -0.00751793       0.01109864       0.00394205 </v>
   <v>      -0.02248977       0.00380774       0.00770566 </v>
   <v>       0.00142078      -0.02553694       0.01061837 </v>
   <v>       0.01121196       0.00542760      -0.01867400 </v>
   <v>      -0.01731289      -0.01390560       0.01121856 </v>
   <v>      -0.00187412      -0.00703601       0.05416273 </v>
   <v>       0.02294294      -0.01493932       0.00318767 </v>
   <v>      -0.00863325       0.00237746      -0.02828690 </v>
   <v>       0.00653287      -0.02846475       0.00647723 </v>
   <v>       0.03244317       0.01299965       0.01035223 </v>
[...]
    <v>       0.27014639       0.96899513       0.50002193 </v>
    <v>       0.06080764       0.69752158       0.50002838 </v>
    <v>       0.30115464       0.93793462       0.49983936 </v>
    <v>       0.30098722       0.69761695       0.50018229 </v>
    <v>       0.36333722       0.96901212       0.50021782 </v>
    <v>       0.36314741       0.72870658       0.50023695 </v>
    <v>       0.60330140       0.96904037       0.50008639 </v>
    <v>       0.39425200       0.69760866       0.50021826 </v>
    <v>       0.63439688       0.93796574       0.49998925 </v>
    <v>       0.63432936       0.69748732       0.49995068 </v>
    <v>       0.69642713       0.96897258       0.50015784 </v>
    <v>       0.69647380       0.72856425       0.49987315 </v>
    <v>       0.93659782       0.96881968       0.50016267 </v>
    <v>       0.72760542       0.69750112       0.50063359 </v>
    <v>       0.96766536       0.93775207       0.50019217 </v>
    <v>       0.96756303       0.69747709       0.50030720 </v>
    <v>       0.65617294       0.33468285       0.70935222 </v>
    <v>       0.06783566       0.13813144       0.49963894 </v>
    <v>       0.19389445       0.26411460       0.49957369 </v>
    <v>       0.13699486       0.06903694       0.50061523 </v>
    <v>       0.26300051       0.19498776       0.50113653 </v>
    <v>       0.26314580       0.06916195       0.50033367 </v>
    <v>       0.40142371       0.26417726       0.50251930 </v>
    <v>       0.40163985       0.13834154       0.50342559 </v>
    <v>       0.52776954       0.26422459       0.50142805 </v>
    <v>       0.47057567       0.06925417       0.50349804 </v>
    <v>       0.59691052       0.19576886       0.51940313 </v>
    <v>       0.59633389       0.06933419       0.50129914 </v>
    <v>       0.73412515       0.26434310       0.49811475 </v>
    <v>       0.73439039       0.13837007       0.50185622 </v>
    <v>       0.86031079       0.26412962       0.50275129 </v>
    <v>       0.80364587       0.06913348       0.50008462 </v>
    <v>       0.92952870       0.19495780       0.50105553 </v>
    <v>       0.92960875       0.06900651       0.50069643 </v>
    <v>       0.06781766       0.59735392       0.49887410 </v>
    <v>       0.06771945       0.47142986       0.50005873 </v>
    <v>       0.19384161       0.59742150       0.50106076 </v>
    <v>       0.13690753       0.40235423       0.49983130 </v>
    <v>       0.26291093       0.52828669       0.49981762 </v>
    <v>       0.26301968       0.40232827       0.49959297 </v>
    <v>       0.40116993       0.59740444       0.50106430 </v>
    <v>       0.40127614       0.47142953       0.50019184 </v>
    <v>       0.52720746       0.59730608       0.49930061 </v>
    <v>       0.47049658       0.40221478       0.50210431 </v>
    <v>       0.59639210       0.52815775       0.50362098 </v>
    <v>       0.59643927       0.40183521       0.51387534 </v>
    <v>       0.73441888       0.59718337       0.50459892 </v>
    <v>       0.73435760       0.47102679       0.50682401 </v>
    <v>       0.86038608       0.59715675       0.50149790 </v>
    <v>       0.80328228       0.40211188       0.51038994 </v>
    <v>       0.92944879       0.52814984       0.50136587 </v>
    <v>       0.92932702       0.40224185       0.50215338 </v>
    <v>       0.06787358       0.93076035       0.49996285 </v>
    <v>       0.06776983       0.80469877       0.49996816 </v>
    <v>       0.19394392       0.93090003       0.49996207 </v>
    <v>       0.13693905       0.73561103       0.50052704 </v>
    <v>       0.26305113       0.86175600       0.49939687 </v>
    <v>       0.26294713       0.73565525       0.49990779 </v>
    <v>       0.40133344       0.93089351       0.49879775 </v>
    <v>       0.40116553       0.80477168       0.50054698 </v>
    <v>       0.52717364       0.93094010       0.49931227 </v>
    <v>       0.47033193       0.73567091       0.50005016 </v>
    <v>       0.59625438       0.86176445       0.49990342 </v>
    <v>       0.59627345       0.73553781       0.49971322 </v>
    <v>       0.73452835       0.93085924       0.50066675 </v>
    <v>       0.73448233       0.80467337       0.49922163 </v>
    <v>       0.86047289       0.93075725       0.49973847 </v>
    <v>       0.80362618       0.73555632       0.50001647 </v>
    <v>       0.92960557       0.86165255       0.50012029 </v>
    <v>       0.92955677       0.73555023       0.50037396 </v>
    <v>       0.06777521       0.26407169       0.50004159 </v>
    <v>       0.72257547       0.31746515       0.66858204 </v>
    <v>       0.67039286       0.41845400       0.67275208 </v>
    <v>       0.57158588       0.26717699       0.67198763 </v>
    <v>       0.66063634       0.33622676       0.81480956 </v>
    <v>       0.49905297       0.33310999       0.50628654 </v>
    <v>       0.99867170       0.16653257       0.50032599 </v>
    <v>       0.83196746       0.16662930       0.50214358 </v>
    <v>       0.83169408       0.33307294       0.50441581 </v>
    <v>       0.33209211       0.49989315       0.50051704 </v>
    <v>       0.16531554       0.49990988       0.50040690 </v>
    <v>       0.16538003       0.66647072       0.50050870 </v>
    <v>       0.66524960       0.49940820       0.50811930 </v>
    <v>       0.49882678       0.49976751       0.50260336 </v>
    <v>       0.49868402       0.66642322       0.50048583 </v>
    <v>       0.99861511       0.49980766       0.50167616 </v>
    <v>       0.83185478       0.49956293       0.50537788 </v>
    <v>       0.83201514       0.66636664       0.50256449 </v>
    <v>       0.33210275       0.83325656       0.50046713 </v>
    <v>       0.16539528       0.83325182       0.50035008 </v>
    <v>       0.16546522       0.99998431       0.50042407 </v>
    <v>       0.66535702       0.83322143       0.50024483 </v>
    <v>       0.49868362       0.83327890       0.50062489 </v>
    <v>       0.49887085       0.00011264       0.50202609 </v>
    <v>       0.99864159       0.83316365       0.50057880 </v>
    <v>       0.83205625       0.83317253       0.50035345 </v>
    <v>       0.83208087       0.99994220       0.50042452 </v>
    <v>       0.33228559       0.16664223       0.50286900 </v>
    <v>       0.16537593       0.16655506       0.50039428 </v>
    <v>       0.16536415       0.33320599       0.50000146 </v>
    <v>       0.66516803       0.16679203       0.50560594 </v>
    <v>       0.49938219       0.16675436       0.50805675 </v>
   </varray>
  </structure>
  <varray name="forces" >
   <v>       0.02042906      -0.11549643       0.00612346 </v>
   <v>      -0.01511240      -0.00982690       0.00028474 </v>
   <v>       0.01840919      -0.04102073       0.00564536 </v>
   <v>       0.00268354       0.02119139       0.00000134 </v>
   <v>      -0.01892127       0.01613061       0.00803029 </v>
   <v>      -0.02125707       0.02231356       0.00765609 </v>
   <v>       0.00439984       0.03828209       0.00542366 </v>
   <v>       0.01670317       0.02000210       0.00783691 </v>
   <v>       0.04582827       0.03877939      -0.00112443 </v>
   <v>       0.01410530       0.04829230       0.00585546 </v>
   <v>      -0.04197757       0.03490183       0.00031543 </v>
   <v>      -0.04454392       0.01476313       0.00167622 </v>
   <v>       0.01017629      -0.02534467       0.00293485 </v>
   <v>       0.01520053       0.03834627       0.00452309 </v>
   <v>      -0.05144544      -0.06676964       0.00598005 </v>
   <v>       0.01334824       0.00243686       0.00483893 </v>
   <v>       0.03078639      -0.03172144       0.00825769 </v>
   <v>       0.01382100       0.01973030      -0.00009104 </v>
   <v>      -0.01255380       0.03215978       0.00125248 </v>
   <v>       0.00435679       0.02586844       0.00447161 </v>
   <v>       0.04667820       0.01468962       0.00265019 </v>
   <v>       0.04901741       0.11260187       0.00452495 </v>
   <v>      -0.01709958       0.04290550       0.00275623 </v>
   <v>       0.00935970       0.03677046       0.00438516 </v>
   <v>      -0.02472738       0.00771853       0.00249483 </v>
   <v>      -0.00738930      -0.01205366       0.00454339 </v>
   <v>       0.04647854       0.02275334       0.00515616 </v>
   <v>       0.00277401      -0.03759009       0.00363981 </v>
   <v>       0.05233658       0.08716107       0.00414721 </v>
   <v>       0.02922016      -0.03315954       0.00324764 </v>
   <v>      -0.10422747       0.00193150       0.00556817 </v>
   <v>      -0.03207859      -0.05077868       0.00388426 </v>
   <v>       0.00573667       0.01182756       0.00339932 </v>
   <v>      -0.01062609       0.01783525       0.00552760 </v>
   <v>      -0.00238883       0.00739150       0.00100303 </v>
   <v>      -0.04721830       0.07657863       0.00302167 </v>
   <v>      -0.00626626      -0.02721795       0.00028684 </v>
   <v>      -0.02918516       0.00962449       0.00437578 </v>
   <v>      -0.05842920      -0.00332087       0.00551626 </v>
   <v>       0.01758811      -0.03989290       0.00363010 </v>
   <v>       0.04982402      -0.03934321       0.00300097 </v>
   <v>       0.02686748      -0.01780027       0.00248959 </v>
   <v>       0.00632105      -0.04144557       0.00235563 </v>
   <v>       0.02351983      -0.04900478       0.00167726 </v>
   <v>      -0.01000748      -0.02096272       0.00189457 </v>
   <v>      -0.05410649       0.00608155       0.00272623 </v>
   <v>      -0.06572215      -0.06380763       0.00312451 </v>
   <v>       0.00714581      -0.04060596       0.00568683 </v>
   <v>       0.08676542       0.02242268       0.00468201 </v>
   <v>       0.03556429      -0.02342628       0.00564700 </v>
   <v>      -0.00997710      -0.01311317       0.00011626 </v>
   <v>      -0.05369662      -0.03781948       0.00815365 </v>
   <v>       0.01266518       0.00559581      -0.00128005 </v>
   <v>       0.01723243      -0.00948266       0.00590306 </v>
   <v>      -0.00254627       0.01394983      -0.03551474 </v>
   <v>       0.00272560      -0.00119011       0.00104390 </v>
   <v>       0.01188545       0.00885819      -0.00476914 </v>
   <v>       0.00148843      -0.00123936      -0.00200734 </v>
   <v>       0.00693759      -0.01008858       0.01080297 </v>
   <v>       0.01135277      -0.00068280       0.00430069 </v>
   <v>       0.00302047      -0.00466418       0.00315978 </v>
   <v>      -0.00138735      -0.01716844       0.00972490 </v>
   <v>      -0.01367747      -0.01064045      -0.06041017 </v>
   <v>      -0.01176823      -0.00661298       0.00002631 </v>
   <v>       0.00506004      -0.02023779       0.00832980 </v>
   <v>       0.01494727      -0.00709291      -0.00782797 </v>
   <v>      -0.01305244       0.00541515      -0.03272760 </v>
   <v>      -0.00222761      -0.01895507       0.00658028 </v>
   <v>       0.02573643       0.01635778       0.00058625 </v>
   <v>      -0.01640895      -0.00339729       0.00241108 </v>
   <v>      -0.00649152       0.02864515       0.01080285 </v>
   <v>      -0.00305897      -0.00228165      -0.00229462 </v>
   <v>       0.00539566      -0.00774182      -0.00828665 </v>
   <v>      -0.00163239      -0.02379774       0.00047016 </v>
   <v>      -0.01877206      -0.00732177       0.00447648 </v>
   <v>      -0.03213441      -0.02605327      -0.00229179 </v>
   <v>       0.00348420      -0.01585428       0.00261096 </v>
   <v>       0.01023006      -0.00743546      -0.00468533 </v>
   <v>       0.01808673      -0.00972734       0.00236423 </v>
   <v>       0.00550759       0.00845790       0.00032197 </v>
   <v>      -0.02662162      -0.01474208      -0.00713325 </v>
   <v>       0.00360776       0.00088516      -0.00174184 </v>
   <v>      -0.00692418      -0.03016322      -0.00022236 </v>
   <v>      -0.01740612       0.00594786      -0.00344225 </v>
   <v>       0.02931194      -0.01423320       0.00734176 </v>
   <v>       0.00246328       0.02498236      -0.02992145 </v>
   <v>      -0.00170074       0.00188768       0.00187994 </v>
   <v>       0.00333969      -0.00172007      -0.00661300 </v>
   <v>      -0.00034422      -0.00383411      -0.00339438 </v>
   <v>       0.02467834      -0.01918033      -0.00985213 </v>
   <v>       0.00054586       0.00118577       0.00478342 </v>
   <v>       0.00328998      -0.00683275      -0.00342647 </v>
   <v>       0.02389237       0.01343942       0.00003395 </v>
   <v>      -0.01061312      -0.00029800       0.00150057 </v>
   <v>      -0.00235158       0.03148347      -0.00646351 </v>
   <v>      -0.01982255       0.01130904       0.00431675 </v>
   <v>      -0.00594286       0.00926693      -0.00693838 </v>
   <v>      -0.00061791       0.01972453      -0.00017825 </v>
   <v>       0.01162448       0.01001031      -0.00541156 </v>
   <v>       0.01561168       0.00678739       0.00546515 </v>
   <v>       0.00592762       0.03042021      -0.00314264 </v>
   <v>      -0.00274192       0.00473499      -0.00077090 </v>
   <v>      -0.02837228       0.00944756       0.00113036 </v>
   <v>      -0.00245620       0.00076750      -0.00629436 </v>
   <v>      -0.00034912       0.00045796       0.00345399 </v>
   <v>       0.03070502       0.01587797       0.00323749 </v>
   <v>       0.00030014      -0.00126999      -0.00623534 </v>
   <v>      -0.01130741       0.00351408       0.00596323 </v>
   <v>      -0.02750530       0.02380391      -0.00254327 </v>
   <v>       0.01444495       0.01326587      -0.05161292 </v>
   <v>       0.03433496       0.04385300      -0.04403133 </v>
   <v>      -0.01064180      -0.02939328       0.01210243 </v>
   <v>      -0.02882493      -0.04185968       0.03774640 </v>
   <v>      -0.02234405      -0.00825449       0.00271398 </v>
   <v>      -0.00204232       0.00733078       0.00020216 </v>
   <v>      -0.00504002       0.00490700      -0.00064614 </v>
   <v>       0.01887434      -0.00667419       0.02205804 </v>
   <v>       0.00586383      -0.00753702      -0.00303071 </v>
   <v>      -0.00118618      -0.00841779      -0.00305779 </v>
   <v>      -0.00959567       0.00309661      -0.00394071 </v>
   <v>      -0.01139540       0.01404367       0.02462165 </v>
   <v>       0.00242282      -0.00106032      -0.01217208 </v>
   <v>       0.00646494       0.00247194      -0.00362995 </v>
   <v>      -0.00027714      -0.00338661      -0.00734921 </v>
   <v>       0.00989303       0.01846447       0.00485914 </v>
   <v>      -0.00160954      -0.00264421      -0.00315271 </v>
   <v>      -0.00425979       0.00538470      -0.00560542 </v>
   <v>       0.00187616       0.00137397      -0.00619644 </v>
   <v>       0.00790252       0.00024124      -0.00051643 </v>
   <v>      -0.00050690      -0.00031084      -0.00614456 </v>
   <v>       0.00704716       0.00641010      -0.00410370 </v>
   <v>      -0.00146430       0.00355822      -0.00686880 </v>
   <v>       0.00648282      -0.00522014      -0.00221072 </v>
   <v>      -0.00303316      -0.00476662      -0.00347109 </v>
   <v>      -0.01018263      -0.00104266      -0.00001771 </v>
   <v>       0.00653335       0.00078414      -0.00261491 </v>
   <v>       0.00609266       0.00699303      -0.00121003 </v>
   <v>      -0.00031774       0.00046123      -0.00677185 </v>
   <v>       0.00982888      -0.01826312       0.01313814 </v>
   <v>      -0.01464748      -0.01305228       0.01850644 </v>
  </varray>
  <varray name="stress" >
   <v>      -1.09832302       0.00592972      -0.01243850 </v>
   <v>       0.00592971      -1.11985361      -0.01560050 </v>
   <v>      -0.01243850      -0.01560046      -0.20322442 </v>
  </varray>
  <energy>
   <i name="e_fr_energy">   -837.67036507 </i>
   <i name="e_wo_entrp">   -837.62098558 </i>
   <i name="e_0_energy">     -0.09875899 </i>
  </energy>
  <time name="totalsc"> 4031.56 4084.29</time>
 </calculation>
 <calculation>
  <scstep>
   <time name="dav">  445.61  451.13</time>
   <time name="total">  450.39  455.98</time>
   <energy>
    <i name="alphaZ">    315.09161757 </i>
    <i name="ewald"> 108207.71779987 </i>
    <i name="hartreedc">-163059.62490277 </i>
    <i name="XCdc">   2669.67431358 </i>
    <i name="pawpsdc">  98667.69103242 </i>
    <i name="pawaedc">-101424.05710184 </i>
    <i name="eentropy">     -0.09891480 </i>
    <i name="bandstr">  -8347.93835005 </i>
    <i name="atom">  62143.14740716 </i>
    <i name="e_fr_energy">   -828.39709887 </i>
    <i name="e_wo_entrp">   -828.29818407 </i>
    <i name="e_0_energy">   -828.34764147 </i>
   </energy>
  </scstep>
  <scstep>
   <time name="diag">   22.54   22.92</time>
   <time name="diis">  361.11  366.07</time>
   <time name="orth">    4.57    4.62</time>
   <time name="total">  392.95  398.40</time>
   <energy>
    <i name="e_fr_energy">   -828.39952648 </i>
    <i name="e_wo_entrp">   -828.30018557 </i>
    <i name="e_0_energy">   -828.34985602 </i>
   </energy>
  </scstep>
  <scstep>
   <time name="diag">   22.54   22.91</time>
   <time name="diis">  388.73  394.13</time>
   <time name="orth">    4.58    4.63</time>
   <time name="total">  420.56  426.45</time>
   <energy>
    <i name="e_fr_energy">   -828.40077253 </i>
    <i name="e_wo_entrp">   -828.30237933 </i>
    <i name="e_0_energy">   -828.35157593 </i>
   </energy>
  </scstep>
  <scstep>
   <time name="diag">   22.53   22.92</time>
   <time name="diis">  353.70  358.55</time>
   <time name="orth">    4.57    4.62</time>
   <time name="total">  385.52  390.87</time>
   <energy>
    <i name="e_fr_energy">   -828.39960681 </i>
    <i name="e_wo_entrp">   -828.30059654 </i>
    <i name="e_0_energy">   -828.35010167 </i>
   </energy>
  </scstep>
  <scstep>
   <time name="diag">   22.51   22.90</time>
   <time name="diis">  385.17  390.49</time>
   <time name="orth">    4.58    4.62</time>
   <time name="total">  416.96  422.78</time>
   <energy>
    <i name="e_fr_energy">   -828.39958576 </i>
    <i name="e_wo_entrp">   -828.30052998 </i>
    <i name="e_0_energy">   -828.35005787 </i>
   </energy>
  </scstep>
  <scstep>
   <time name="diag">   22.64   23.04</time>
   <time name="diis">  337.61  342.26</time>
   <time name="orth">    4.58    4.62</time>
   <time name="total">  369.53  374.71</time>
   <energy>
    <i name="e_fr_energy">   -828.39955730 </i>
    <i name="e_wo_entrp">   -828.30056053 </i>
    <i name="e_0_energy">   -828.35005892 </i>
   </energy>
  </scstep>
  <scstep>
   <time name="diag">   22.61   23.01</time>
   <time name="diis">  373.34  378.57</time>
   <time name="orth">    4.58    4.62</time>
   <time name="total">  405.30  411.05</time>
   <energy>
    <i name="e_fr_energy">   -828.39955635 </i>
    <i name="e_wo_entrp">   -828.30057843 </i>
    <i name="e_0_energy">   -828.35006739 </i>
   </energy>
  </scstep>
  <scstep>
   <time name="diag">   22.53   22.92</time>
   <time name="diis">  368.56  373.67</time>
   <time name="orth">    4.57    4.62</time>
   <time name="total">  400.44  406.05</time>
   <energy>
    <i name="e_fr_energy">   -828.39955493 </i>
    <i name="e_wo_entrp">   -828.30055661 </i>
    <i name="e_0_energy">   -828.35005577 </i>
   </energy>
  </scstep>
  <scstep>
   <time name="diag">   22.53   22.90</time>
   <time name="diis">  299.75  303.83</time>
   <time name="orth">    4.57    4.62</time>
   <time name="total">  331.63  336.19</time>
   <energy>
    <i name="e_fr_energy">   -828.39955035 </i>
    <i name="e_wo_entrp">   -828.30053225 </i>
    <i name="e_0_energy">   -828.35004130 </i>
   </energy>
  </scstep>
  <scstep>
   <time name="diag">   22.54   22.92</time>
   <time name="diis">  285.29  289.11</time>
   <time name="orth">    4.57    4.62</time>
   <time name="total">  317.18  321.49</time>
   <energy>
    <i name="e_fr_energy">   -828.39953877 </i>
    <i name="e_wo_entrp">   -828.30054062 </i>
    <i name="e_0_energy">   -828.35003970 </i>
   </energy>
  </scstep>
  <scstep>
   <time name="diag">   22.70   23.08</time>
