membrane                                
           1
    26.266500    0.000000    0.000000
   -13.132880   22.749747    0.000000
     0.000000    0.000000   20.201799
   C    Al   S    Cl   Cu
  54   1  54   4  27
Direct configuration=     1
   0.02973097  0.30214115  0.50015103
   0.02977220  0.06199104  0.50017785
   0.27013248  0.30212592  0.50007473
   0.06085938  0.03095933  0.50031131
   0.30122972  0.27106102  0.50043172
   0.30116551  0.03113315  0.50048396
   0.36336571  0.30212743  0.50111805
   0.36330005  0.06221528  0.50135753
   0.60311637  0.30203098  0.50962047
   0.39440104  0.03115519  0.50134861
   0.63423121  0.27093760  0.50998030
   0.63428822  0.03101831  0.50083421
   0.69645409  0.30203302  0.50798661
   0.69646557  0.06211775  0.50082650
   0.93649263  0.30209738  0.50109763
   0.72751500  0.03104199  0.50030905
   0.96761298  0.27109524  0.50041121
   0.96764552  0.03092169  0.50029074
   0.02971625  0.63541184  0.50025626
   0.02969026  0.39532213  0.50039454
   0.26992393  0.63546798  0.50027247
   0.06080157  0.36429751  0.50014249
   0.30100841  0.60442203  0.50016648
   0.30120374  0.36428123  0.50008813
   0.36315732  0.63550170  0.50030517
   0.36337062  0.39536509  0.50042983
   0.60321625  0.63521484  0.50055550
   0.39445798  0.36431805  0.50110365
   0.63433645  0.60418276  0.50157990
   0.63428635  0.36432648  0.51022977
   0.69650690  0.63529098  0.50157093
   0.69655987  0.39549061  0.50969173
   0.93645703  0.63536420  0.50076891
   0.72764415  0.36441043  0.50878026
   0.96757496  0.60429695  0.50076065
   0.96758210  0.36429444  0.50109321
   0.02978998  0.96880120  0.50019827
   0.02969034  0.72862294  0.50012406
   0.27008470  0.96897767  0.50010520
   0.06079552  0.69756735  0.50013401
   0.30117069  0.93793755  0.50008638
   0.30100017  0.69764133  0.50017453
   0.36333653  0.96903824  0.50041833
   0.36312935  0.72869975  0.50027853
   0.60324691  0.96890051  0.50029938
   0.39423315  0.69766442  0.50018145
   0.63430882  0.93781949  0.50013817
   0.63428486  0.69740255  0.50010646
   0.69646013  0.96889995  0.50015885
   0.69644037  0.72849820  0.50006801
   0.93656581  0.96875783  0.50018485
   0.72756410  0.69742433  0.50050221
   0.96765757  0.93773300  0.50029637
   0.96754765  0.69752350  0.50028965
   0.65605021  0.33505700  0.71186064
   0.06784454  0.13811136  0.49968609
   0.19399436  0.26408546  0.49982067
   0.13697596  0.06901554  0.50078959
   0.26312472  0.19499522  0.49999731
   0.26307520  0.06912560  0.49974294
   0.40155454  0.26421473  0.50168620
   0.40147380  0.13832747  0.50212547
   0.52755800  0.26430470  0.50635097
   0.47053276  0.06933101  0.50222831
   0.59648475  0.19534626  0.51300130
   0.59632433  0.06921325  0.50119774
   0.73418889  0.26430059  0.50273602
   0.73438980  0.13825991  0.50110430
   0.86034376  0.26414006  0.50171800
   0.80361042  0.06903500  0.49972646
   0.92960047  0.19499196  0.49987182
   0.92958426  0.06897485  0.50074442
   0.06781390  0.59743709  0.49957133
   0.06776827  0.47142268  0.49977747
   0.19382673  0.59742679  0.50072312
   0.13697144  0.40235846  0.49996379
   0.26297818  0.52830726  0.49971737
   0.26312362  0.40232679  0.49982765
   0.40120611  0.59746145  0.50085839
   0.40132964  0.47142561  0.49994928
   0.52718920  0.59725336  0.49964782
   0.47058043  0.40225875  0.50160440
   0.59642414  0.52807422  0.50253738
   0.59644582  0.40207679  0.51112113
   0.73447281  0.59715416  0.50264714
   0.73442112  0.47112674  0.50896247
   0.86034395  0.59718259  0.50101022
   0.80328017  0.40218217  0.50864522
   0.92941278  0.52817631  0.50098748
   0.92938402  0.40224753  0.50171905
   0.06787949  0.93077642  0.49974379
   0.06776099  0.80475167  0.50012311
   0.19393970  0.93089727  0.49983125
   0.13693192  0.73566552  0.50020719
   0.26309389  0.86179591  0.49975634
   0.26295572  0.73570197  0.49974778
   0.40133752  0.93096149  0.49948266
   0.40117091  0.80480783  0.50066490
   0.52715949  0.93083857  0.49969136
   0.47033139  0.73569553  0.49975718
   0.59625943  0.86167729  0.50007005
   0.59624091  0.73546196  0.49971231
   0.73450795  0.93079059  0.50026614
   0.73446111  0.80461069  0.49963979
   0.86044863  0.93068549  0.49971344
   0.80359618  0.73551683  0.49962198
   0.92961085  0.86162564  0.50066278
   0.92953723  0.73558485  0.49980828
   0.06786389  0.26411872  0.50005394
   0.72191064  0.31823683  0.66807465
   0.67151775  0.41895606  0.67340024
   0.57039189  0.26618257  0.67872256
   0.66101374  0.33558806  0.81753783
   0.49913666  0.33323626  0.50673142
   0.99872339  0.16653257  0.50004443
   0.83199155  0.16658206  0.50138336
   0.83170414  0.33315596  0.50582940
   0.33217956  0.49993103  0.50018444
   0.16538491  0.49991230  0.50007141
   0.16539825  0.66653873  0.50014881
   0.66542543  0.49949289  0.50844226
   0.49888283  0.49975953  0.50179992
   0.49868476  0.66643166  0.50013958
   0.99864925  0.49985291  0.50133731
   0.83174996  0.49957630  0.50574495
   0.83200465  0.66638460  0.50162481
   0.33217260  0.83333434  0.50015851
   0.16540958  0.83327981  0.49999335
   0.16544910  0.99997802  0.50013313
   0.66535157  0.83314757  0.49992992
   0.49867208  0.83324162  0.50021145
   0.49883358  0.00007905  0.50148542
   0.99866754  0.83320741  0.50021166
   0.83204241  0.83310772  0.50010138
   0.83206181  0.99987081  0.50011098
   0.33230710  0.16666086  0.50177871
   0.16543924  0.16651358  0.50013810
   0.16548245  0.33322418  0.49989399
   0.66527504  0.16680907  0.50553913
   0.49907858  0.16690505  0.50772734
Direct configuration=     2
   0.02979630  0.30218483  0.50015155
   0.02979320  0.06202176  0.50017733
   0.27015221  0.30212943  0.50007426
   0.06085419  0.03090951  0.50031100
   0.30117562  0.27109078  0.50042913
   0.30111380  0.03107449  0.50047911
   0.36345769  0.30218594  0.50111444
   0.36338069  0.06227957  0.50135820
   0.60313651  0.30207796  0.50956849
   0.39445197  0.03121900  0.50134969
   0.63428712  0.27096296  0.50996868
   0.63434762  0.03113300  0.50082875
   0.69647553  0.30211984  0.50796398
   0.69640150  0.06217713  0.50082333
   0.93645136  0.30220084  0.50109793
   0.72753804  0.03099895  0.50030615
   0.96759287  0.27103362  0.50041072
   0.96760271  0.03088362  0.50029103
   0.02974422  0.63545964  0.50025028
   0.02975824  0.39537395  0.50039075
   0.26996076  0.63553277  0.50027214
   0.06082468  0.36427353  0.50014246
   0.30103077  0.60442738  0.50016585
   0.30123011  0.36428083  0.50008742
   0.36314834  0.63553911  0.50030492
   0.36329817  0.39532990  0.50042432
   0.60332443  0.63533971  0.50054922
   0.39448806  0.36426159  0.50109805
   0.63433613  0.60414411  0.50157989
   0.63426561  0.36431868  0.51018483
   0.69649416  0.63523519  0.50157448
   0.69656391  0.39546542  0.50965542
   0.93645497  0.63532020  0.50076303
   0.72759096  0.36431484  0.50876354
   0.96750016  0.60427909  0.50075518
   0.96743423  0.36419427  0.50109159
   0.02982799  0.96883929  0.50019825
   0.02969536  0.72860765  0.50012374
   0.27008195  0.96902304  0.50010417
   0.06077198  0.69754449  0.50013551
   0.30119387  0.93791431  0.50008476
   0.30097413  0.69758236  0.50017344
   0.36328015  0.96899008  0.50041215
   0.36314426  0.72870623  0.50027695
   0.60323373  0.96887156  0.50029272
   0.39419200  0.69760713  0.50018095
   0.63432474  0.93781175  0.50013778
   0.63428782  0.69733762  0.50010589
   0.69645665  0.96888684  0.50016080
   0.69646142  0.72844439  0.50006683
   0.93657626  0.96881430  0.50018429
   0.72746323  0.69745993  0.50049871
   0.96765640  0.93771141  0.50029492
   0.96756736  0.69751593  0.50028483
   0.65603367  0.33501058  0.71178618
   0.06784741  0.13811419  0.49968428
   0.19401919  0.26410564  0.49981727
   0.13697406  0.06901478  0.50078773
   0.26310782  0.19495343  0.50001442
   0.26307316  0.06914913  0.49975235
   0.40151727  0.26422281  0.50170460
   0.40144933  0.13827332  0.50215082
   0.52758435  0.26431621  0.50630638
   0.47048621  0.06930152  0.50225510
   0.59647385  0.19533134  0.51313064
   0.59635063  0.06918157  0.50120535
   0.73417555  0.26430563  0.50266847
   0.73437161  0.13819954  0.50111977
   0.86041713  0.26416762  0.50174272
   0.80363909  0.06905962  0.49973191
   0.92957654  0.19496819  0.49988955
   0.92958927  0.06897483  0.50074451
   0.06782718  0.59739674  0.49956093
   0.06777584  0.47144796  0.49978254
   0.19381497  0.59742351  0.50072762
   0.13691474  0.40232884  0.49996084
   0.26296669  0.52829938  0.49971773
   0.26312370  0.40231943  0.49982417
   0.40121325  0.59744254  0.50086182
   0.40136632  0.47147521  0.49995355
   0.52711669  0.59721207  0.49964303
   0.47052561  0.40223413  0.50161762
   0.59644299  0.52812394  0.50256217
   0.59646805  0.40205270  0.51118709
   0.73445181  0.59716712  0.50268615
   0.73441733  0.47112294  0.50893719
   0.86039263  0.59721591  0.50102180
   0.80327182  0.40217168  0.50868589
   0.92943797  0.52821501  0.50099922
   0.92942103  0.40222900  0.50173631
   0.06787101  0.93077118  0.49974544
   0.06775930  0.80473211  0.50012014
   0.19396757  0.93090931  0.49983321
   0.13690873  0.73565476  0.50021053
   0.26310109  0.86182886  0.49975100
   0.26295211  0.73571135  0.49974849
   0.40135474  0.93094382  0.49947182
   0.40118147  0.80481896  0.50066300
   0.52712799  0.93083480  0.49968579
   0.47034899  0.73570392  0.49975982
   0.59627147  0.86170988  0.50006677
   0.59624179  0.73547783  0.49971145
   0.73448546  0.93080163  0.50027152
   0.73445522  0.80460205  0.49963334
   0.86045253  0.93069279  0.49971218
   0.80366770  0.73554184  0.49962743
   0.92959999  0.86161265  0.50065524
   0.92950802  0.73560110  0.49981616
   0.06783860  0.26412557  0.50005353
   0.72190746  0.31823942  0.66814219
   0.67145668  0.41885998  0.67347338
   0.57044092  0.26625305  0.67857239
   0.66105025  0.33565676  0.81743524
   0.49905966  0.33322716  0.50671219
   0.99871838  0.16654488  0.50005064
   0.83198975  0.16659261  0.50140339
   0.83176757  0.33314901  0.50577211
   0.33216979  0.49990844  0.50019085
   0.16537051  0.49989812  0.50008049
   0.16538010  0.66654029  0.50015832
   0.66542153  0.49955282  0.50840989
   0.49888509  0.49975641  0.50183081
   0.49870003  0.66643571  0.50014748
   0.99863552  0.49984057  0.50135158
   0.83182717  0.49964997  0.50572841
   0.83199776  0.66637338  0.50164980
   0.33215833  0.83333386  0.50016735
   0.16541058  0.83328088  0.50000493
   0.16545817  0.99997193  0.50013855
   0.66534730  0.83314288  0.49994098
   0.49868998  0.83325463  0.50022189
   0.49883570  0.00008571  0.50150498
   0.99866810  0.83319087  0.50022043
   0.83202986  0.83310469  0.50010827
   0.83204162  0.99986935  0.50011703
   0.33231285  0.16666419  0.50180912
   0.16545327  0.16653452  0.50014248
   0.16547398  0.33322145  0.49990081
   0.66528386  0.16674667  0.50552424
   0.49902530  0.16685054  0.50771119
Direct configuration=     3
   0.02975901  0.30215990  0.50015125
   0.02978121  0.06200422  0.50017763
   0.27014095  0.30212742  0.50007453
   0.06085716  0.03093794  0.50031118
   0.30120650  0.27107380  0.50043061
   0.30114331  0.03110797  0.50048188
   0.36340519  0.30215254  0.50111650
   0.36333466  0.06224288  0.50135782
   0.60312501  0.30205114  0.50959816
   0.39442290  0.03118258  0.50134907
   0.63425521  0.27094848  0.50997531
   0.63431372  0.03106754  0.50083187
   0.69646329  0.30207029  0.50797690
   0.69643807  0.06214324  0.50082514
   0.93647492  0.30214179  0.50109776
   0.72752489  0.03102351  0.50030780
   0.96760435  0.27106879  0.50041100
   0.96762714  0.03090535  0.50029087
   0.02972825  0.63543236  0.50025370
   0.02971944  0.39534437  0.50039291
   0.26993974  0.63549579  0.50027233
   0.06081149  0.36428722  0.50014248
   0.30101801  0.60442432  0.50016621
   0.30121506  0.36428106  0.50008783
   0.36315347  0.63551776  0.50030506
   0.36333952  0.39534998  0.50042747
   0.60326268  0.63526844  0.50055280
   0.39447089  0.36429381  0.50110124
   0.63433631  0.60416617  0.50157990
   0.63427745  0.36432313  0.51021048
   0.69650143  0.63526703  0.50157245
   0.69656160  0.39547980  0.50967615
   0.93645615  0.63534532  0.50076639
   0.72762132  0.36436940  0.50877308
   0.96754286  0.60428928  0.50075830
   0.96751863  0.36425145  0.50109251
   0.02980630  0.96881755  0.50019826
   0.02969250  0.72861638  0.50012392
   0.27008352  0.96899714  0.50010476
   0.06078542  0.69755754  0.50013465
   0.30118064  0.93792757  0.50008568
   0.30098899  0.69761602  0.50017406
   0.36331233  0.96901757  0.50041567
   0.36313575  0.72870253  0.50027785
   0.60324125  0.96888808  0.50029653
   0.39421549  0.69763983  0.50018124
   0.63431566  0.93781617  0.50013801
   0.63428613  0.69737468  0.50010621
   0.69645863  0.96889432  0.50015969
   0.69644941  0.72847510  0.50006750
   0.93657030  0.96878207  0.50018461
   0.72752080  0.69743961  0.50050070
   0.96765707  0.93772374  0.50029575
   0.96755611  0.69752025  0.50028758
   0.65604311  0.33503708  0.71182868
   0.06784577  0.13811257  0.49968531
   0.19400502  0.26409412  0.49981921
   0.13697514  0.06901521  0.50078879
   0.26311747  0.19497729  0.50000465
   0.26307432  0.06913570  0.49974698
   0.40153854  0.26421820  0.50169410
   0.40146329  0.13830423  0.50213635
   0.52756931  0.26430964  0.50633183
   0.47051278  0.06931835  0.50223981
   0.59648007  0.19533986  0.51305681
   0.59633562  0.06919965  0.50120101
   0.73418317  0.26430275  0.50270702
   0.73438199  0.13823400  0.50111094
   0.86037525  0.26415189  0.50172861
   0.80362273  0.06904557  0.49972880
   0.92959020  0.19498176  0.49987943
   0.92958641  0.06897484  0.50074446
   0.06781960  0.59741977  0.49956686
   0.06777152  0.47143353  0.49977964
   0.19382168  0.59742538  0.50072505
   0.13694710  0.40234575  0.49996252
   0.26297325  0.52830388  0.49971752
   0.26312366  0.40232363  0.49982615
   0.40120917  0.59745333  0.50085986
   0.40134538  0.47144690  0.49995111
   0.52715808  0.59723564  0.49964576
   0.47055690  0.40224818  0.50161007
   0.59643223  0.52809556  0.50254802
   0.59645537  0.40206645  0.51114944
   0.73446380  0.59715972  0.50266389
   0.73441950  0.47112511  0.50895162
   0.86036485  0.59719689  0.50101519
   0.80327658  0.40217767  0.50866268
   0.92942359  0.52819292  0.50099252
   0.92939991  0.40223958  0.50172646
   0.06787585  0.93077417  0.49974450
   0.06776026  0.80474327  0.50012184
   0.19395166  0.93090244  0.49983209
   0.13692196  0.73566090  0.50020863
   0.26309698  0.86181005  0.49975404
   0.26295417  0.73570600  0.49974808
   0.40134491  0.93095390  0.49947801
   0.40117544  0.80481261  0.50066408
   0.52714597  0.93083695  0.49968897
   0.47033894  0.73569913  0.49975831
   0.59626460  0.86169128  0.50006864
   0.59624129  0.73546877  0.49971194
   0.73449829  0.93079533  0.50026845
   0.73445858  0.80460698  0.49963702
   0.86045031  0.93068863  0.49971290
   0.80362688  0.73552756  0.49962432
   0.92960619  0.86162006  0.50065954
   0.92952469  0.73559183  0.49981166
   0.06785303  0.26412166  0.50005376
   0.72190928  0.31823794  0.66810364
   0.67149154  0.41891482  0.67343164
   0.57041294  0.26621282  0.67865810
   0.66102941  0.33561755  0.81749380
   0.49910361  0.33323235  0.50672316
   0.99872124  0.16653786  0.50004710
   0.83199078  0.16658659  0.50139196
   0.83173137  0.33315298  0.50580481
   0.33217537  0.49992134  0.50018719
   0.16537873  0.49990621  0.50007531
   0.16539046  0.66653940  0.50015289
   0.66542375  0.49951861  0.50842837
   0.49888380  0.49975819  0.50181318
   0.49869131  0.66643340  0.50014297
   0.99864336  0.49984761  0.50134344
   0.83178310  0.49960792  0.50573785
   0.83200169  0.66637978  0.50163554
   0.33216647  0.83333414  0.50016231
   0.16541001  0.83328027  0.49999832
   0.16545299  0.99997540  0.50013546
   0.66534974  0.83314556  0.49993467
   0.49867976  0.83324720  0.50021593
   0.49883449  0.00008191  0.50149381
   0.99866778  0.83320031  0.50021543
   0.83203702  0.83310642  0.50010434
   0.83205315  0.99987019  0.50011358
   0.33230957  0.16666229  0.50179176
   0.16544527  0.16652257  0.50013998
   0.16547881  0.33322301  0.49989692
   0.66527883  0.16678228  0.50553274
   0.49905571  0.16688165  0.50772041
Direct configuration=     4
   0.02974230  0.30213731  0.50015194
   0.02978160  0.06199831  0.50017722
   0.27013890  0.30213253  0.50007336
   0.06086527  0.03094879  0.50031076
   0.30122784  0.27109598  0.50042868
   0.30116543  0.03112722  0.50047752
   0.36339384  0.30213956  0.50111123
   0.36333854  0.06224945  0.50135771
   0.60314497  0.30205909  0.50953372
   0.39442727  0.03118004  0.50134928
   0.63426971  0.27097033  0.50996287
   0.63430027  0.03107611  0.50082420
   0.69646444  0.30206764  0.50794401
   0.69645886  0.06215653  0.50082030
   0.93645349  0.30211716  0.50109685
   0.72751135  0.03103380  0.50030514
   0.96759853  0.27108669  0.50041144
   0.96763863  0.03092865  0.50029125
   0.02970351  0.63541564  0.50024655
   0.02969605  0.39532980  0.50038961
   0.26994348  0.63548945  0.50027204
   0.06082399  0.36430796  0.50014231
   0.30101631  0.60443161  0.50016544
   0.30121565  0.36428410  0.50008628
   0.36314489  0.63550294  0.50030502
   0.36334493  0.39533096  0.50042156
   0.60328936  0.63527131  0.50054592
   0.39447394  0.36429992  0.50109365
   0.63434347  0.60416844  0.50157934
   0.63428906  0.36433549  0.51015544
   0.69649213  0.63526200  0.50157601
   0.69655629  0.39545609  0.50963129
   0.93645283  0.63534788  0.50075911
   0.72762098  0.36437076  0.50875207
   0.96755030  0.60428933  0.50075095
   0.96753278  0.36428724  0.50108900
   0.02980232  0.96879985  0.50019810
   0.02968396  0.72860431  0.50012320
   0.27008706  0.96899358  0.50010304
   0.06078260  0.69754905  0.50013596
   0.30117066  0.93792591  0.50008325
   0.30100348  0.69763081  0.50017261
   0.36331916  0.96902469  0.50040885
   0.36313378  0.72869458  0.50027587
   0.60325979  0.96891632  0.50028876
   0.39421287  0.69764215  0.50018055
   0.63430890  0.93781827  0.50013728
   0.63431038  0.69738936  0.50010438
   0.69646848  0.96889361  0.50016182
   0.69643878  0.72847378  0.50006498
   0.93656991  0.96877559  0.50018390
   0.72749908  0.69740886  0.50049792
   0.96766129  0.93773236  0.50029381
   0.96755837  0.69750808  0.50028193
   0.65602566  0.33498138  0.71174560
   0.06784932  0.13811479  0.49968301
   0.19402658  0.26411492  0.49981485
   0.13697676  0.06901198  0.50078643
   0.26310727  0.19495857  0.50002664
   0.26307333  0.06915307  0.49975898
   0.40150891  0.26421457  0.50171766
   0.40145121  0.13827728  0.50216880
   0.52759395  0.26432194  0.50627298
   0.47048981  0.06929727  0.50227439
   0.59648604  0.19534637  0.51321897
   0.59634696  0.06918729  0.50121092
   0.73417301  0.26431421  0.50262104
   0.73437989  0.13820681  0.50113085
   0.86041135  0.26416638  0.50176043
   0.80363980  0.06906294  0.49973596
   0.92956765  0.19496601  0.49990244
   0.92958421  0.06897528  0.50074442
   0.06782162  0.59739076  0.49955386
   0.06777485  0.47144843  0.49978621
   0.19382003  0.59743094  0.50073081
   0.13691781  0.40232570  0.49995879
   0.26296688  0.52830566  0.49971811
   0.26312451  0.40231413  0.49982178
   0.40121102  0.59744186  0.50086413
   0.40136590  0.47147016  0.49995659
   0.52712813  0.59722185  0.49964004
   0.47052420  0.40223520  0.50162714
   0.59643339  0.52812549  0.50257978
   0.59646556  0.40205245  0.51123193
   0.73445456  0.59717047  0.50271361
   0.73441303  0.47110695  0.50891875
   0.86039810  0.59722399  0.50102981
   0.80326272  0.40215767  0.50871352
   0.92944174  0.52821825  0.50100734
   0.92941600  0.40223132  0.50174846
   0.06787372  0.93076781  0.49974667
   0.06776033  0.80472249  0.50011816
   0.19397297  0.93091344  0.49983457
   0.13690177  0.73565139  0.50021313
   0.26309740  0.86183089  0.49974712
   0.26294911  0.73570834  0.49974915
   0.40135385  0.93093782  0.49946441
   0.40118244  0.80481425  0.50066150
   0.52713002  0.93084106  0.49968207
   0.47034507  0.73569661  0.49976180
   0.59627359  0.86171310  0.50006453
   0.59625295  0.73547177  0.49971104
   0.73448054  0.93079478  0.50027549
   0.73444969  0.80458781  0.49962873
   0.86045168  0.93069949  0.49971135
   0.80365829  0.73553875  0.49963167
   0.92959901  0.86161464  0.50064981
   0.92950622  0.73559527  0.49982191
   0.06784116  0.26412478  0.50005327
   0.72191392  0.31823764  0.66818163
   0.67141757  0.41880920  0.67351372
   0.57046158  0.26628982  0.67846313
   0.66107357  0.33570166  0.81737256
   0.49902081  0.33322173  0.50669964
   0.99871609  0.16655073  0.50005481
   0.83198693  0.16659979  0.50141669
   0.83179799  0.33314382  0.50573406
   0.33216347  0.49989562  0.50019532
   0.16536447  0.49989106  0.50008653
   0.16537139  0.66654235  0.50016471
   0.66541746  0.49958155  0.50838899
   0.49888797  0.49975474  0.50185156
   0.49870849  0.66643810  0.50015297
   0.99862545  0.49983332  0.50136100
   0.83186680  0.49968706  0.50571784
   0.83199248  0.66636550  0.50166681
   0.33214914  0.83333203  0.50017334
   0.16541043  0.83328101  0.50001268
   0.16546209  0.99996765  0.50014229
   0.66534501  0.83313988  0.49994839
   0.49869992  0.83326057  0.50022895
   0.49883721  0.00009108  0.50151794
   0.99866980  0.83318168  0.50022643
   0.83202097  0.83310240  0.50011305
   0.83203073  0.99986732  0.50012117
   0.33231716  0.16666670  0.50182970
   0.16546136  0.16654695  0.50014554
   0.16546926  0.33321996  0.49990528
   0.66528927  0.16671616  0.50551510
   0.49899935  0.16682373  0.50770127
Direct configuration=     5
   0.02973525  0.30212779  0.50015223
   0.02978176  0.06199582  0.50017705
   0.27013804  0.30213468  0.50007287
   0.06086869  0.03095337  0.50031059
   0.30123684  0.27110534  0.50042787
   0.30117476  0.03113533  0.50047568
   0.36338905  0.30213408  0.50110900
   0.36334017  0.06225222  0.50135767
   0.60315339  0.30206244  0.50950655
   0.39442911  0.03117897  0.50134936
   0.63427582  0.27097954  0.50995762
   0.63429459  0.03107973  0.50082097
   0.69646492  0.30206652  0.50793014
   0.69646763  0.06216214  0.50081826
   0.93644445  0.30210677  0.50109647
   0.72750565  0.03103814  0.50030402
   0.96759608  0.27109424  0.50041162
   0.96764348  0.03093848  0.50029141
   0.02969307  0.63540859  0.50024354
   0.02968619  0.39532366  0.50038822
   0.26994505  0.63548678  0.50027191
   0.06082927  0.36431670  0.50014223
   0.30101559  0.60443468  0.50016511
   0.30121590  0.36428538  0.50008563
   0.36314127  0.63549670  0.50030500
   0.36334720  0.39532294  0.50041907
   0.60330060  0.63527251  0.50054302
   0.39447523  0.36430250  0.50109045
   0.63434649  0.60416940  0.50157910
   0.63429395  0.36434070  0.51013224
   0.69648821  0.63525988  0.50157751
   0.69655405  0.39544609  0.50961238
   0.93645143  0.63534896  0.50075604
   0.72762084  0.36437133  0.50874321
   0.96755344  0.60428935  0.50074786
   0.96753875  0.36430234  0.50108752
   0.02980065  0.96879239  0.50019803
   0.02968037  0.72859922  0.50012290
   0.27008855  0.96899208  0.50010232
   0.06078142  0.69754547  0.50013651
   0.30116646  0.93792521  0.50008223
   0.30100959  0.69763705  0.50017200
   0.36332204  0.96902769  0.50040597
   0.36313295  0.72869123  0.50027504
   0.60326760  0.96892823  0.50028549
   0.39421177  0.69764313  0.50018026
   0.63430605  0.93781916  0.50013697
   0.63432060  0.69739555  0.50010361
   0.69647264  0.96889331  0.50016272
   0.69643431  0.72847323  0.50006391
   0.93656975  0.96877286  0.50018361
   0.72748992  0.69739590  0.50049675
   0.96766307  0.93773599  0.50029300
   0.96755932  0.69750295  0.50027955
   0.65601830  0.33495789  0.71171057
   0.06785081  0.13811573  0.49968204
   0.19403567  0.26412369  0.49981300
   0.13697744  0.06901062  0.50078544
   0.26310297  0.19495068  0.50003592
   0.26307292  0.06916039  0.49976404
   0.40149642  0.26421304  0.50172759
   0.40144611  0.13826592  0.50218248
   0.52760434  0.26432712  0.50624817
   0.47048013  0.06928838  0.50228897
   0.59648856  0.19534912  0.51328733
   0.59635173  0.06918208  0.50121510
   0.73416873  0.26431904  0.50258479
   0.73437900  0.13819534  0.50113924
   0.86042658  0.26417249  0.50177384
   0.80364700  0.06907026  0.49973898
   0.92955814  0.19495937  0.49991214
   0.92958328  0.06897546  0.50074441
   0.06782247  0.59737853  0.49954838
   0.06777625  0.47145471  0.49978898
   0.19381934  0.59743328  0.50073324
   0.13690546  0.40231724  0.49995722
   0.26296420  0.52830641  0.49971835
   0.26312487  0.40231012  0.49981994
   0.40121179  0.59743702  0.50086593
   0.40137455  0.47147996  0.49995890
   0.52711550  0.59721604  0.49963762
   0.47051041  0.40222973  0.50163434
   0.59643388  0.52813812  0.50259317
   0.59646986  0.40204655  0.51126671
   0.73445066  0.59717501  0.50273458
   0.73441030  0.47109930  0.50890489
   0.86041212  0.59723541  0.50103597
   0.80325687  0.40214924  0.50873496
   0.92944939  0.52822893  0.50101358
   0.92942279  0.40222784  0.50175774
   0.06787283  0.93076512  0.49974758
   0.06776036  0.80471373  0.50011661
   0.19398195  0.93091807  0.49983561
   0.13689326  0.73564738  0.50021503
   0.26309757  0.86183967  0.49974420
   0.26294697  0.73570932  0.49974961
   0.40135762  0.93093103  0.49945868
   0.40118539  0.80481495  0.50066041
   0.52712330  0.93084279  0.49967916
   0.47034765  0.73569554  0.49976327
   0.59627738  0.86172230  0.50006279
   0.59625786  0.73547304  0.49971065
   0.73447306  0.93079454  0.50027846
   0.73444595  0.80457973  0.49962523
   0.86045225  0.93070407  0.49971069
   0.80367153  0.73554347  0.49963478
   0.92959599  0.86161236  0.50064570
   0.92949843  0.73559673  0.49982624
   0.06783616  0.26412609  0.50005306
   0.72191588  0.31823752  0.66821452
   0.67138638  0.41876467  0.67354833
   0.57048208  0.26632229  0.67838092
   0.66109219  0.33573712  0.81732144
   0.49898590  0.33321725  0.50668972
   0.99871392  0.16655616  0.50005806
   0.83198530  0.16660536  0.50142712
   0.83182608  0.33313996  0.50570424
   0.33215845  0.49988478  0.50019874
   0.16535846  0.49988467  0.50009126
   0.16536335  0.66654360  0.50016969
   0.66541481  0.49960808  0.50837239
   0.49888973  0.49975328  0.50186774
   0.49871573  0.66644008  0.50015718
   0.99861790  0.49982729  0.50136841
   0.83190209  0.49972043  0.50570941
   0.83198859  0.66635948  0.50167999
   0.33214183  0.83333114  0.50017799
   0.16541061  0.83328132  0.50001874
   0.16546593  0.99996438  0.50014517
   0.66534301  0.83313748  0.49995418
   0.49870842  0.83326620  0.50023445
   0.49883835  0.00009495  0.50152812
   0.99867066  0.83317382  0.50023106
   0.83201420  0.83310071  0.50011672
   0.83202127  0.99986612  0.50012437
   0.33232036  0.16666856  0.50184570
   0.16546815  0.16655723  0.50014788
   0.16546524  0.33321867  0.49990881
   0.66529368  0.16668828  0.50550766
   0.49897559  0.16679931  0.50769320
Direct configuration=     6
   0.02972784  0.30213849  0.50015236
   0.02978553  0.06199962  0.50017672
   0.27014514  0.30214029  0.50007151
   0.06086775  0.03094647  0.50031025
   0.30123066  0.27109315  0.50042691
   0.30117672  0.03114181  0.50047322
   0.36337992  0.30213559  0.50110601
   0.36333313  0.06223919  0.50135802
   0.60315690  0.30206581  0.50946326
   0.39441652  0.03116478  0.50134974
   0.63427050  0.27097007  0.50995031
   0.63430543  0.03107607  0.50081587
   0.69646787  0.30206034  0.50790670
   0.69646056  0.06214884  0.50081538
   0.93646665  0.30212460  0.50109620
   0.72751272  0.03104204  0.50030241
   0.96759009  0.27109026  0.50041238
   0.96764368  0.03093579  0.50029158
   0.02970036  0.63539850  0.50023850
   0.02968851  0.39533084  0.50038611
   0.26994153  0.63549173  0.50027178
   0.06080447  0.36429956  0.50014176
   0.30101122  0.60442767  0.50016457
   0.30121964  0.36428760  0.50008390
   0.36314791  0.63549469  0.50030498
   0.36335747  0.39533739  0.50041518
   0.60328223  0.63526135  0.50053838
   0.39446235  0.36429568  0.50108574
   0.63434321  0.60417627  0.50157911
   0.63429752  0.36433795  0.51009625
   0.69649230  0.63526561  0.50158058
   0.69655933  0.39545466  0.50958152
   0.93646249  0.63535779  0.50075144
   0.72763099  0.36437514  0.50872753
   0.96755744  0.60429440  0.50074314
   0.96754322  0.36429098  0.50108541
   0.02980390  0.96879629  0.50019797
   0.02967736  0.72859192  0.50012193
   0.27009969  0.96900544  0.50010084
   0.06077221  0.69753232  0.50013676
   0.30117604  0.93793608  0.50007994
   0.30100573  0.69763806  0.50017106
   0.36332688  0.96902501  0.50040134
   0.36313801  0.72869760  0.50027369
   0.60326253  0.96893364  0.50028023
   0.39421723  0.69763847  0.50017985
   0.63431274  0.93783531  0.50013599
   0.63431126  0.69739440  0.50010174
   0.69646676  0.96890230  0.50016373
   0.69644703  0.72847634  0.50006161
   0.93657406  0.96878202  0.50018316
   0.72751079  0.69740005  0.50049498
   0.96766062  0.93773226  0.50029162
   0.96755041  0.69750694  0.50027606
   0.65600787  0.33492245  0.71166328
   0.06785381  0.13811835  0.49968051
   0.19403988  0.26413092  0.49980991
   0.13698028  0.06901080  0.50078367
   0.26310547  0.19495726  0.50005160
   0.26307793  0.06916553  0.49977259
   0.40148329  0.26420222  0.50174383
   0.40144677  0.13826774  0.50220518
   0.52761284  0.26433095  0.50620311
   0.47048035  0.06928149  0.50231308
   0.59649680  0.19535890  0.51339968
   0.59634693  0.06918383  0.50122173
   0.73416844  0.26431921  0.50252283
   0.73438982  0.13819924  0.50115301
   0.86042468  0.26416763  0.50179579
   0.80364607  0.06907543  0.49974412
   0.92954925  0.19495938  0.49992853
   0.92958167  0.06897865  0.50074439
   0.06781400  0.59736900  0.49953915
   0.06777320  0.47145552  0.49979358
   0.19382203  0.59743774  0.50073741
   0.13690302  0.40231517  0.49995470
   0.26295969  0.52830663  0.49971884
   0.26312438  0.40230731  0.49981690
   0.40120853  0.59743195  0.50086896