 vasp.5.4.4.18Apr17-6-g9f103f2a35 (build Apr 28 2017 10:40:22) complex          
  
 executed on Intel-16.0.3.210-OMP date 2019.11.15  15:42:12
 running on   32 total cores
 distrk:  each k-point on   32 cores,    1 groups
 distr:  one band on NCORES_PER_BAND=  32 cores,    1 groups


--------------------------------------------------------------------------------------------------------


 INCAR:
 POTCAR:    PAW_PBE C 08Apr2002                   
 POTCAR:    PAW_PBE Al 04Jan2001                  
 POTCAR:    PAW_PBE S 06Sep2000                   
 POTCAR:    PAW_PBE Cl 06Sep2000                  
 POTCAR:    PAW_PBE Cu 22Jun2005                  

 ----------------------------------------------------------------------------- 
|                                                                             |
|           W    W    AA    RRRRR   N    N  II  N    N   GGGG   !!!           |
|           W    W   A  A   R    R  NN   N  II  NN   N  G    G  !!!           |
|           W    W  A    A  R    R  N N  N  II  N N  N  G       !!!           |
|           W WW W  AAAAAA  RRRRR   N  N N  II  N  N N  G  GGG   !            |
|           WW  WW  A    A  R   R   N   NN  II  N   NN  G    G                |
|           W    W  A    A  R    R  N    N  II  N    N   GGGG   !!!           |
|                                                                             |
|      For optimal performance we recommend to set                            |
|        NCORE= 4 - approx SQRT( number of cores)                             |
|      NCORE specifies how many cores store one orbital (NPAR=cpu/NCORE).     |
|      This setting can  greatly improve the performance of VASP for DFT.     |
|      The default,   NCORE=1            might be grossly inefficient         |
|      on modern multi-core architectures or massively parallel machines.     |
|      Do your own testing !!!!                                               |
|      Unfortunately you need to use the default for GW and RPA calculations. |
|      (for HF NCORE is supported but not extensively tested yet)             |
|                                                                             |
 ----------------------------------------------------------------------------- 

 POTCAR:    PAW_PBE C 08Apr2002                   
   VRHFIN =C: s2p2                                                              
   LEXCH  = PE                                                                  
   EATOM  =   147.1560 eV,   10.8157 Ry                                         
                                                                                
   TITEL  = PAW_PBE C 08Apr2002                                                 
   LULTRA =        F    use ultrasoft PP ?                                      
   IUNSCR =        1    unscreen: 0-lin 1-nonlin 2-no                           
   RPACOR =    1.200    partial core radius                                     
   POMASS =   12.011; ZVAL   =    4.000    mass and valenz                      
   RCORE  =    1.500    outmost cutoff radius                                   
   RWIGS  =    1.630; RWIGS  =    0.863    wigner-seitz radius (au A)           
   ENMAX  =  400.000; ENMIN  =  300.000 eV                                      
   ICORE  =        2    local potential                                         
   LCOR   =        T    correct aug charges                                     
   LPAW   =        T    paw PP                                                  
   EAUG   =  644.873                                                            
   DEXC   =    0.000                                                            
   RMAX   =    1.529    core radius for proj-oper                               
   RAUG   =    1.300    factor for augmentation sphere                          
   RDEP   =    1.501    radius for radial grids                                 
   RDEPT  =    1.300    core radius for aug-charge                              
                                                                                
   Atomic configuration                                                         
    4 entries                                                                   
     n  l   j            E        occ.                                          
     1  0  0.50      -273.3789   2.0000                                         
     2  0  0.50       -13.7508   2.0000                                         
     2  1  0.50        -5.2854   2.0000                                         
     3  2  1.50        -5.4423   0.0000                                         
   Description                                                                  
     l       E           TYP  RCUT    TYP  RCUT                                 
     0    -13.7508458     23  1.200                                             
     0     -8.2022199     23  1.200                                             
     1     -5.2854383     23  1.500                                             
     1     34.0145650     23  1.500                                             
     2     -5.4423304      7  1.500                                             
  local pseudopotential read in
  partial core-charges read in
  partial kinetic energy density read in
  atomic valenz-charges read in
  non local Contribution for L=           0  read in
    real space projection operators read in
  non local Contribution for L=           0  read in
    real space projection operators read in
  non local Contribution for L=           1  read in
    real space projection operators read in
  non local Contribution for L=           1  read in
    real space projection operators read in
    PAW grid and wavefunctions read in
 
   number of l-projection  operators is LMAX  =           4
   number of lm-projection operators is LMMAX =           8
 
 POTCAR:    PAW_PBE Al 04Jan2001                  
   VRHFIN =Al: s2p1                                                             
   LEXCH  = PE                                                                  
   EATOM  =    53.5387 eV,    3.9350 Ry                                         
                                                                                
   TITEL  = PAW_PBE Al 04Jan2001                                                
   LULTRA =        F    use ultrasoft PP ?                                      
   IUNSCR =        1    unscreen: 0-lin 1-nonlin 2-no                           
   RPACOR =    1.500    partial core radius                                     
   POMASS =   26.981; ZVAL   =    3.000    mass and valenz                      
   RCORE  =    1.900    outmost cutoff radius                                   
   RWIGS  =    2.650; RWIGS  =    1.402    wigner-seitz radius (au A)           
   ENMAX  =  240.300; ENMIN  =  180.225 eV                                      
   ICORE  =        2    local potential                                         
   LCOR   =        T    correct aug charges                                     
   LPAW   =        T    paw PP                                                  
   EAUG   =  291.052                                                            
   DEXC   =    0.000                                                            
   RMAX   =    1.939    core radius for proj-oper                               
   RAUG   =    1.300    factor for augmentation sphere                          
   RDEP   =    1.966    radius for radial grids                                 
   RDEPT  =    1.856    core radius for aug-charge                              
                                                                                
   Atomic configuration                                                         
    6 entries                                                                   
     n  l   j            E        occ.                                          
     1  0  0.50     -1511.1048   2.0000                                         
     2  0  0.50      -108.1629   2.0000                                         
     2  1  1.50       -69.6402   6.0000                                         
     3  0  0.50        -7.7528   2.0000                                         
     3  1  1.50        -2.7121   1.0000                                         
     3  2  2.50        -2.7212   0.0000                                         
   Description                                                                  
     l       E           TYP  RCUT    TYP  RCUT                                 
     0     -7.7528455     23  1.900                                             
     0     -3.3096929     23  1.900                                             
     1     -2.7120682     23  1.900                                             
     1     13.6058260     23  1.900                                             
     2     -2.7211652      7  1.900                                             
  local pseudopotential read in
  partial core-charges read in
  partial kinetic energy density read in
  atomic valenz-charges read in
  non local Contribution for L=           0  read in
    real space projection operators read in
  non local Contribution for L=           0  read in
    real space projection operators read in
  non local Contribution for L=           1  read in
    real space projection operators read in
  non local Contribution for L=           1  read in
    real space projection operators read in
    PAW grid and wavefunctions read in
 
   number of l-projection  operators is LMAX  =           4
   number of lm-projection operators is LMMAX =           8
 
 POTCAR:    PAW_PBE S 06Sep2000                   
   VRHFIN =S : s2p4                                                             
   LEXCH  = PE                                                                  
   EATOM  =   276.8230 eV,   20.3459 Ry                                         
                                                                                
   TITEL  = PAW_PBE S 06Sep2000                                                 
   LULTRA =        F    use ultrasoft PP ?                                      
   IUNSCR =        1    unscreen: 0-lin 1-nonlin 2-no                           
   RPACOR =    1.500    partial core radius                                     
   POMASS =   32.066; ZVAL   =    6.000    mass and valenz                      
   RCORE  =    1.900    outmost cutoff radius                                   
   RWIGS  =    2.200; RWIGS  =    1.164    wigner-seitz radius (au A)           
   ENMAX  =  258.689; ENMIN  =  194.016 eV                                      
   ICORE  =        2    local potential                                         
   LCOR   =        T    correct aug charges                                     
   LPAW   =        T    paw PP                                                  
   EAUG   =  335.092                                                            
   DEXC   =    0.000                                                            
   RMAX   =    1.942    core radius for proj-oper                               
   RAUG   =    1.300    factor for augmentation sphere                          
   RDEP   =    1.954    radius for radial grids                                 
   RDEPT  =    1.744    core radius for aug-charge                              
                                                                                
   Atomic configuration                                                         
    6 entries                                                                   
     n  l   j            E        occ.                                          
     1  0  0.50     -2405.8406   2.0000                                         
     2  0  0.50      -211.7007   2.0000                                         
     2  1  1.50      -156.4958   6.0000                                         
     3  0  0.50       -17.2562   2.0000                                         
     3  1  0.50        -7.0085   4.0000                                         
     3  2  1.50        -6.8029   0.0000                                         
   Description                                                                  
     l       E           TYP  RCUT    TYP  RCUT                                 
     0    -17.2561641     23  1.900                                             
     0    -15.8743224     23  1.900                                             
     1     -7.0085400     23  1.900                                             
     1     -2.7779785     23  1.900                                             
     2     -6.8029130     23  1.900                                             
  local pseudopotential read in
  partial core-charges read in
  partial kinetic energy density read in
  atomic valenz-charges read in
  non local Contribution for L=           0  read in
    real space projection operators read in
  non local Contribution for L=           0  read in
    real space projection operators read in
  non local Contribution for L=           1  read in
    real space projection operators read in
  non local Contribution for L=           1  read in
    real space projection operators read in
    PAW grid and wavefunctions read in
 
   number of l-projection  operators is LMAX  =           4
   number of lm-projection operators is LMMAX =           8
 
 POTCAR:    PAW_PBE Cl 06Sep2000                  
   VRHFIN =Cl: s2p5                                                             
   LEXCH  = PE                                                                  
   EATOM  =   409.7259 eV,   30.1140 Ry                                         
                                                                                
   TITEL  = PAW_PBE Cl 06Sep2000                                                
   LULTRA =        F    use ultrasoft PP ?                                      
   IUNSCR =        1    unscreen: 0-lin 1-nonlin 2-no                           
   RPACOR =    1.500    partial core radius                                     
   POMASS =   35.453; ZVAL   =    7.000    mass and valenz                      
   RCORE  =    1.900    outmost cutoff radius                                   
   RWIGS  =    2.100; RWIGS  =    1.111    wigner-seitz radius (au A)           
   ENMAX  =  262.472; ENMIN  =  196.854 eV                                      
   ICORE  =        2    local potential                                         
   LCOR   =        T    correct aug charges                                     
   LPAW   =        T    paw PP                                                  
   EAUG   =  356.192                                                            
   DEXC   =    0.000                                                            
   RMAX   =    1.945    core radius for proj-oper                               
   RAUG   =    1.300    factor for augmentation sphere                          
   RDEP   =    2.020    radius for radial grids                                 
   RDEPT  =    1.678    core radius for aug-charge                              
                                                                                
   Atomic configuration                                                         
    6 entries                                                                   
     n  l   j            E        occ.                                          
     1  0  0.50     -2751.1850   2.0000                                         
     2  0  0.50      -252.6861   2.0000                                         
     2  1  1.50      -191.6157   6.0000                                         
     3  0  0.50       -20.6916   2.0000                                         
     3  1  0.50        -8.5949   5.0000                                         
     3  2  1.50        -8.1635   0.0000                                         
   Description                                                                  
     l       E           TYP  RCUT    TYP  RCUT                                 
     0    -20.6915656     23  1.900                                             
     0    -22.0521482     23  1.900                                             
     1     -8.5948577     23  1.900                                             
     1     -5.3847331     23  1.900                                             
     2     -8.1634956     23  1.900                                             
  local pseudopotential read in
  partial core-charges read in
  partial kinetic energy density read in
  atomic valenz-charges read in
  non local Contribution for L=           0  read in
    real space projection operators read in
  non local Contribution for L=           0  read in
    real space projection operators read in
  non local Contribution for L=           1  read in
    real space projection operators read in
  non local Contribution for L=           1  read in
    real space projection operators read in
    PAW grid and wavefunctions read in
 
   number of l-projection  operators is LMAX  =           4
   number of lm-projection operators is LMMAX =           8
 
 POTCAR:    PAW_PBE Cu 22Jun2005                  
   VRHFIN =Cu: d10 p1                                                           
   LEXCH  = PE                                                                  
   EATOM  =  1390.9808 eV,  102.2342 Ry                                         
                                                                                
   TITEL  = PAW_PBE Cu 22Jun2005                                                
   LULTRA =        F    use ultrasoft PP ?                                      
   IUNSCR =        1    unscreen: 0-lin 1-nonlin 2-no                           
   RPACOR =    2.000    partial core radius                                     
   POMASS =   63.546; ZVAL   =   11.000    mass and valenz                      
   RCORE  =    2.300    outmost cutoff radius                                   
   RWIGS  =    2.200; RWIGS  =    1.164    wigner-seitz radius (au A)           
   ENMAX  =  295.446; ENMIN  =  221.585 eV                                      
   ICORE  =        3    local potential                                         
   LCOR   =        T    correct aug charges                                     
   LPAW   =        T    paw PP                                                  
   EAUG   =  586.980                                                            
   DEXC   =    0.000                                                            
   RMAX   =    2.344    core radius for proj-oper                               
   RAUG   =    1.300    factor for augmentation sphere                          
   RDEP   =    2.302    radius for radial grids                                 
   RDEPT  =    1.771    core radius for aug-charge                              
                                                                                
   Atomic configuration                                                         
    9 entries                                                                   
     n  l   j            E        occ.                                          
     1  0  0.50     -8850.2468   2.0000                                         
     2  0  0.50     -1062.3498   2.0000                                         
     2  1  1.50      -916.8226   6.0000                                         
     3  0  0.50      -114.6929   2.0000                                         
     3  1  1.50       -72.1325   6.0000                                         
     3  2  2.50        -5.0394  10.0000                                         
     4  0  0.50        -4.6097   1.0000                                         
     4  1  0.50        -4.0817   0.0000                                         
     4  3  2.50        -1.3606   0.0000                                         
   Description                                                                  
     l       E           TYP  RCUT    TYP  RCUT                                 
     2     -5.0393973     23  2.200                                             
     2     10.8846608     23  2.200                                             
     0     -4.6097109     23  2.200                                             
     0      8.2520465     23  2.200                                             
     1     -2.7211652     23  2.200                                             
     1     21.7055443     23  2.200                                             
     3      2.7211652     23  2.300                                             
  local pseudopotential read in
  partial core-charges read in
  partial kinetic energy density read in
  atomic valenz-charges read in
  non local Contribution for L=           2  read in
    real space projection operators read in
  non local Contribution for L=           2  read in
    real space projection operators read in
  non local Contribution for L=           0  read in
    real space projection operators read in
  non local Contribution for L=           0  read in
    real space projection operators read in
  non local Contribution for L=           1  read in
    real space projection operators read in
  non local Contribution for L=           1  read in
    real space projection operators read in
    PAW grid and wavefunctions read in
 
   number of l-projection  operators is LMAX  =           6
   number of lm-projection operators is LMMAX =          18
 

 ----------------------------------------------------------------------------- 
|                                                                             |
|  ADVICE TO THIS USER RUNNING 'VASP/VAMP'   (HEAR YOUR MASTER'S VOICE ...):  |
|                                                                             |
|      You have a (more or less) 'large supercell' and for larger cells       |
|      it might be more efficient to use real space projection opertators     |
|      So try LREAL= Auto  in the INCAR   file.                               |
|      Mind:          For very  accurate calculation you might also keep the  |
|      reciprocal projection scheme          (i.e. LREAL=.FALSE.)             |
|                                                                             |
 ----------------------------------------------------------------------------- 

  PAW_PBE C 08Apr2002                   :
 energy of atom  1       EATOM= -147.1560
 kinetic energy error for atom=    0.0076 (will be added to EATOM!!)
  PAW_PBE Al 04Jan2001                  :
 energy of atom  2       EATOM=  -53.5387
 kinetic energy error for atom=    0.0003 (will be added to EATOM!!)
  PAW_PBE S 06Sep2000                   :
 energy of atom  3       EATOM= -276.8230
 kinetic energy error for atom=    0.0020 (will be added to EATOM!!)
  PAW_PBE Cl 06Sep2000                  :
 energy of atom  4       EATOM= -409.7259
 kinetic energy error for atom=    0.0030 (will be added to EATOM!!)
  PAW_PBE Cu 22Jun2005                  :
 energy of atom  5       EATOM=-1390.9808
 kinetic energy error for atom=    0.0043 (will be added to EATOM!!)
 
 
 POSCAR: POSCAR.xyz                              
  positions in direct lattice
  velocities in cartesian coordinates
 exchange correlation table for  LEXCH =        8
   RHO(1)=    0.500       N(1)  =     2000
   RHO(2)=  100.500       N(2)  =     4000
 


--------------------------------------------------------------------------------------------------------


 ion  position               nearest neighbor table
   1  0.030  0.302  0.500-  22 1.41  17 1.41 109 1.73
   2  0.030  0.062  0.500-  18 1.41   4 1.41  56 1.73
   3  0.270  0.302  0.500-  24 1.41   5 1.41  57 1.73
   4  0.061  0.031  0.500-  37 1.41   2 1.41  58 1.73
   5  0.301  0.271  0.500-   3 1.41   7 1.42  59 1.73
   6  0.301  0.031  0.500-  39 1.41   8 1.42  60 1.73
   7  0.363  0.302  0.500-  28 1.42   5 1.42  61 1.73
   8  0.363  0.062  0.500-  10 1.42   6 1.42  62 1.73
   9  0.603  0.302  0.501-  11 1.42  30 1.42  63 1.72
  10  0.394  0.031  0.500-   8 1.42  43 1.42  64 1.73
  11  0.634  0.271  0.501-   9 1.42  13 1.42  65 1.72
  12  0.634  0.031  0.500-  14 1.42  45 1.42  66 1.73
  13  0.697  0.302  0.501-  34 1.42  11 1.42  67 1.72
  14  0.697  0.062  0.500-  12 1.42  16 1.42  68 1.73
  15  0.937  0.302  0.500-  36 1.41  17 1.42  69 1.73
  16  0.728  0.031  0.500-  49 1.41  14 1.42  70 1.73
  17  0.968  0.271  0.500-   1 1.41  15 1.42  71 1.73
  18  0.968  0.031  0.500-  51 1.41   2 1.41  72 1.73
  19  0.030  0.635  0.500-  40 1.41  35 1.42  73 1.73
  20  0.030  0.395  0.500-  22 1.41  36 1.42  74 1.73
  21  0.270  0.636  0.500-  42 1.41  23 1.41  75 1.73
  22  0.061  0.364  0.500-   1 1.41  20 1.41  76 1.73
  23  0.301  0.604  0.500-  25 1.41  21 1.41  77 1.73
  24  0.301  0.364  0.500-   3 1.41  26 1.41  78 1.73
  25  0.363  0.635  0.500-  23 1.41  46 1.41  79 1.73
  26  0.363  0.395  0.500-  24 1.41  28 1.42  80 1.73
  27  0.603  0.635  0.500-  48 1.41  29 1.42  81 1.73
  28  0.394  0.364  0.500-   7 1.42  26 1.42  82 1.73
  29  0.634  0.604  0.500-  31 1.42  27 1.42  83 1.73
  30  0.634  0.364  0.501-   9 1.42  32 1.42  84 1.72
  31  0.697  0.635  0.500-  29 1.42  52 1.42  85 1.73
  32  0.697  0.396  0.501-  34 1.42  30 1.42  86 1.72
  33  0.937  0.635  0.500-  35 1.42  54 1.42  87 1.73
  34  0.728  0.364  0.501-  13 1.42  32 1.42  88 1.73
  35  0.968  0.604  0.500-  33 1.42  19 1.42  89 1.73
  36  0.968  0.364  0.500-  15 1.41  20 1.42  90 1.73
  37  0.030  0.969  0.500-   4 1.41  53 1.41  91 1.73
  38  0.030  0.729  0.500-  40 1.41  54 1.41  92 1.73
  39  0.270  0.969  0.500-  41 1.41   6 1.41  93 1.73
  40  0.061  0.698  0.500-  38 1.41  19 1.41  94 1.73
  41  0.301  0.938  0.500-  39 1.41  43 1.41  95 1.73
  42  0.301  0.698  0.500-  21 1.41  44 1.41  96 1.73
  43  0.363  0.969  0.500-  41 1.41  10 1.42  97 1.73
  44  0.363  0.729  0.500-  42 1.41  46 1.41  98 1.73
  45  0.603  0.969  0.500-  47 1.41  12 1.42  99 1.73
  46  0.394  0.698  0.500-  44 1.41  25 1.41 100 1.73
  47  0.634  0.938  0.500-  49 1.41  45 1.41 101 1.73
  48  0.634  0.698  0.500-  50 1.41  27 1.41 102 1.73
  49  0.696  0.969  0.500-  47 1.41  16 1.41 103 1.73
  50  0.696  0.729  0.500-  48 1.41  52 1.41 104 1.73
  51  0.937  0.969  0.500-  18 1.41  53 1.41 105 1.73
  52  0.728  0.698  0.500-  50 1.41  31 1.42 106 1.73
  53  0.968  0.938  0.500-  37 1.41  51 1.41 107 1.73
  54  0.968  0.698  0.500-  38 1.41  33 1.42 108 1.73
  55  0.656  0.335  0.749- 112 2.17 110 2.17 111 2.17 113 2.18
  56  0.068  0.138  0.500-   2 1.73 137 2.28 115 2.28
  57  0.194  0.264  0.500-   3 1.73 137 2.28 138 2.28
  58  0.137  0.069  0.500-   4 1.73 129 2.28 137 2.28
  59  0.263  0.195  0.500-   5 1.73 136 2.28 137 2.28
  60  0.263  0.069  0.500-   6 1.73 136 2.28 129 2.28
  61  0.401  0.264  0.500-   7 1.73 136 2.28 114 2.28
  62  0.401  0.138  0.500-   8 1.73 136 2.28 140 2.28
  63  0.527  0.264  0.500-   9 1.72 114 2.28 140 2.28
  64  0.470  0.069  0.500-  10 1.73 132 2.28 140 2.29
  65  0.596  0.195  0.500-  11 1.72 139 2.28 140 2.28
  66  0.596  0.069  0.500-  12 1.73 132 2.28 139 2.28
  67  0.734  0.264  0.500-  13 1.72 117 2.28 139 2.28
  68  0.735  0.138  0.500-  14 1.73 116 2.28 139 2.28
  69  0.860  0.264  0.500-  15 1.73 116 2.28 117 2.28
  70  0.804  0.069  0.500-  16 1.73 135 2.28 116 2.28
  71  0.930  0.195  0.500-  17 1.73 116 2.28 115 2.28
  72  0.930  0.069  0.500-  18 1.73 115 2.28 135 2.28
  73  0.068  0.597  0.500-  19 1.73 120 2.28 124 2.28
  74  0.068  0.471  0.500-  20 1.73 119 2.28 124 2.28
  75  0.194  0.597  0.500-  21 1.73 120 2.28 119 2.28
  76  0.137  0.402  0.500-  22 1.73 138 2.28 119 2.28
  77  0.263  0.528  0.500-  23 1.73 118 2.28 119 2.28
  78  0.263  0.402  0.500-  24 1.73 118 2.28 138 2.28
  79  0.401  0.597  0.500-  25 1.73 123 2.28 118 2.28
  80  0.401  0.471  0.500-  26 1.73 122 2.28 118 2.28
  81  0.527  0.597  0.500-  27 1.73 122 2.28 123 2.28
  82  0.470  0.402  0.500-  28 1.73 122 2.28 114 2.28
  83  0.596  0.528  0.500-  29 1.73 122 2.28 121 2.28
  84  0.596  0.402  0.500-  30 1.72 121 2.28 114 2.28
  85  0.734  0.597  0.500-  31 1.73 126 2.28 121 2.28
  86  0.734  0.471  0.500-  32 1.72 125 2.28 121 2.28
  87  0.860  0.597  0.500-  33 1.73 126 2.28 125 2.28
  88  0.804  0.402  0.500-  34 1.73 117 2.28 125 2.28
  89  0.929  0.528  0.500-  35 1.73 124 2.28 125 2.28
  90  0.929  0.402  0.500-  36 1.73 124 2.28 117 2.29
  91  0.068  0.931  0.500-  37 1.73 129 2.28 133 2.28
  92  0.068  0.805  0.500-  38 1.73 133 2.28 128 2.28
  93  0.194  0.931  0.500-  39 1.73 129 2.28 128 2.28
  94  0.137  0.736  0.500-  40 1.73 120 2.28 128 2.28
  95  0.263  0.862  0.500-  41 1.73 127 2.28 128 2.28
  96  0.263  0.736  0.500-  42 1.73 127 2.28 120 2.28
  97  0.401  0.931  0.500-  43 1.73 132 2.28 127 2.28
  98  0.401  0.805  0.500-  44 1.73 131 2.28 127 2.28
  99  0.527  0.931  0.500-  45 1.73 132 2.28 131 2.28
 100  0.470  0.736  0.500-  46 1.73 123 2.28 131 2.28
 101  0.596  0.862  0.500-  47 1.73 131 2.28 130 2.28
 102  0.596  0.736  0.500-  48 1.73 123 2.28 130 2.28
 103  0.735  0.931  0.500-  49 1.73 135 2.28 130 2.28
 104  0.735  0.805  0.500-  50 1.73 134 2.28 130 2.28
 105  0.861  0.931  0.500-  51 1.73 135 2.28 134 2.28
 106  0.804  0.736  0.500-  52 1.73 126 2.28 134 2.28
 107  0.930  0.862  0.500-  53 1.73 133 2.28 134 2.28
 108  0.930  0.736  0.500-  54 1.73 133 2.28 126 2.28
 109  0.068  0.264  0.500-   1 1.73 115 2.28 138 2.28
 110  0.721  0.317  0.705-  55 2.17
 111  0.671  0.419  0.712-  55 2.17
 112  0.570  0.266  0.716-  55 2.17
 113  0.661  0.335  0.856-  55 2.18
 114  0.499  0.333  0.501-  63 2.28  84 2.28  82 2.28  61 2.28
 115  0.999  0.167  0.500-  72 2.28 109 2.28  56 2.28  71 2.28
 116  0.832  0.167  0.500-  68 2.28  69 2.28  71 2.28  70 2.28
 117  0.832  0.333  0.501-  67 2.28  88 2.28  69 2.28  90 2.29
 118  0.332  0.500  0.500-  78 2.28  77 2.28  79 2.28  80 2.28
 119  0.165  0.500  0.500-  77 2.28  75 2.28  76 2.28  74 2.28
 120  0.165  0.667  0.500-  94 2.28  75 2.28  96 2.28  73 2.28
 121  0.665  0.500  0.502-  84 2.28  86 2.28  83 2.28  85 2.28
 122  0.499  0.500  0.500-  83 2.28  80 2.28  82 2.28  81 2.28
 123  0.499  0.667  0.500- 100 2.28  79 2.28 102 2.28  81 2.28
 124  0.999  0.500  0.500-  90 2.28  89 2.28  74 2.28  73 2.28
 125  0.832  0.500  0.501-  86 2.28  88 2.28  87 2.28  89 2.28
 126  0.832  0.666  0.500-  87 2.28  85 2.28 106 2.28 108 2.28
 127  0.332  0.833  0.500-  96 2.28  95 2.28  98 2.28  97 2.28
 128  0.165  0.833  0.500-  92 2.28  95 2.28  93 2.28  94 2.28
 129  0.165  1.000  0.500-  58 2.28  93 2.28  91 2.28  60 2.28
 130  0.665  0.833  0.500- 101 2.28 102 2.28 103 2.28 104 2.28
 131  0.499  0.833  0.500-  98 2.28 101 2.28 100 2.28  99 2.28
 132  0.499  0.000  0.500-  64 2.28  97 2.28  99 2.28  66 2.28
 133  0.999  0.833  0.500- 107 2.28  92 2.28  91 2.28 108 2.28
 134  0.832  0.833  0.500- 104 2.28 107 2.28 105 2.28 106 2.28
 135  0.832  1.000  0.500- 103 2.28 105 2.28  70 2.28  72 2.28
 136  0.332  0.167  0.500-  62 2.28  60 2.28  61 2.28  59 2.28
 137  0.165  0.167  0.500-  56 2.28  57 2.28  58 2.28  59 2.28
 138  0.165  0.333  0.500-  76 2.28 109 2.28  57 2.28  78 2.28
 139  0.665  0.167  0.501-  67 2.28  65 2.28  66 2.28  68 2.28
 140  0.499  0.167  0.501-  63 2.28  65 2.28  62 2.28  64 2.29
 
  LATTYP: Found a simple monoclinic cell.
 ALAT       =    26.2686690213
 B/A-ratio  =     0.7690454121
 C/A-ratio  =     1.7319636160
 COS(beta)  =    -0.8660294702
  
  Lattice vectors:
  
 A1 = ( -13.1336201829, -22.7497470984,   0.0000000000)
 A2 = (   0.0000000000,   0.0000000000, -20.2017993927)
 A3 = (  39.4001206559,  22.7497470984,   0.0000000000)


Analysis of symmetry for initial positions (statically):
=====================================================================
 Subroutine PRICEL returns:
 Original cell was already a primitive cell.
 

 Routine SETGRP: Setting up the symmetry group for a 
 simple monoclinic supercell.


 Subroutine GETGRP returns: Found  1 space group operations
 (whereof  1 operations were pure point group operations)
 out of a pool of  4 trial point group operations.


The static configuration has the point symmetry C_1 .


Analysis of symmetry for dynamics (positions and initial velocities):
=====================================================================
 Subroutine PRICEL returns:
 Original cell was already a primitive cell.
 

 Routine SETGRP: Setting up the symmetry group for a 
 simple monoclinic supercell.


 Subroutine GETGRP returns: Found  1 space group operations
 (whereof  1 operations were pure point group operations)
 out of a pool of  4 trial point group operations.


The dynamic configuration has the point symmetry C_1 .


Analysis of structural, dynamic, and magnetic symmetry:
=====================================================================
 Subroutine PRICEL returns:
 Original cell was already a primitive cell.
 

 Routine SETGRP: Setting up the symmetry group for a 
 simple monoclinic supercell.


 Subroutine GETGRP returns: Found  1 space group operations
 (whereof  1 operations were pure point group operations)
 out of a pool of  4 trial point group operations.


The magnetic configuration has the point symmetry C_1 .


 Subroutine INISYM returns: Found  1 space group operations
 (whereof  1 operations are pure point group operations),
 and found     1 'primitive' translations

 
 
 KPOINTS: K-Points                                

Automatic generation of k-mesh.
Space group operators:
 irot       det(A)        alpha          n_x          n_y          n_z        tau_x        tau_y        tau_z
    1     1.000000     0.000001     1.000000     0.000000     0.000000     0.000000     0.000000     0.000000
 
 Subroutine IBZKPT returns following result:
 ===========================================
 
 Found      5 irreducible k-points:
 
 Following reciprocal coordinates:
            Coordinates               Weight
  0.000000  0.000000  0.000000      1.000000
  0.333333  0.000000  0.000000      2.000000
  0.000000  0.333333  0.000000      2.000000
  0.333333  0.333333  0.000000      2.000000
 -0.333333  0.333333  0.000000      2.000000
 
 Following cartesian coordinates:
            Coordinates               Weight
  0.000000  0.000000  0.000000      1.000000
  0.012690  0.007326  0.000000      2.000000
  0.000000  0.014652  0.000000      2.000000
  0.012690  0.021978  0.000000      2.000000
 -0.012690  0.007326  0.000000      2.000000
 


--------------------------------------------------------------------------------------------------------




 Dimension of arrays:
   k-points           NKPTS =      5   k-points in BZ     NKDIM =      5   number of bands    NBANDS=    590
   number of dos      NEDOS =    301   number of ions     NIONS =    140
   non local maximal  LDIM  =      6   non local SUM 2l+1 LMDIM =     18
   total plane-waves  NPLWV = ******
   max r-space proj   IRMAX =      1   max aug-charges    IRDMAX=   7686
   dimension x,y,z NGX =   144 NGY =  144 NGZ =  112
   dimension x,y,z NGXF=   288 NGYF=  288 NGZF=  224
   support grid    NGXF=   288 NGYF=  288 NGZF=  224
   ions per type =              54   1  54   4  27
   NGX,Y,Z   is equivalent  to a cutoff of   9.11,  9.11,  9.22 a.u.
   NGXF,Y,Z  is equivalent  to a cutoff of  18.23, 18.23, 18.43 a.u.

 SYSTEM =  membrane                                
 POSCAR =  POSCAR.xyz                              

 Startparameter for this run:
   NWRITE =      2    write-flag & timer
   PREC   = normal    normal or accurate (medium, high low for compatibility)
   ISTART =      0    job   : 0-new  1-cont  2-samecut
   ICHARG =      2    charge: 1-file 2-atom 10-const
   ISPIN  =      2    spin polarized calculation?
   LNONCOLLINEAR =      F non collinear calculations
   LSORBIT =      F    spin-orbit coupling
   INIWAV =      1    electr: 0-lowe 1-rand  2-diag
   LASPH  =      F    aspherical Exc in radial PAW
   METAGGA=      F    non-selfconsistent MetaGGA calc.

 Electronic Relaxation 1
   ENCUT  =  500.0 eV  36.75 Ry    6.06 a.u.  47.89 47.89 36.83*2*pi/ulx,y,z
   ENINI  =  500.0     initial cutoff
   ENAUG  =  644.9 eV  augmentation charge cutoff
   NELM   =     60;   NELMIN=  2; NELMDL= -5     # of ELM steps 
   EDIFF  = 0.1E-05   stopping-criterion for ELM
   LREAL  =      F    real-space projection
   NLSPLINE    = F    spline interpolate recip. space projectors
   LCOMPAT=      F    compatible to vasp.4.4
   GGA_COMPAT  = T    GGA compatible to vasp.4.4-vasp.4.6
   LMAXPAW     = -100 max onsite density
   LMAXMIX     =    2 max onsite mixed and CHGCAR
   VOSKOWN=      0    Vosko Wilk Nusair interpolation
   ROPT   =    0.00000   0.00000   0.00000   0.00000
   ROPT   =    0.00000
 Ionic relaxation
   EDIFFG = -.1E-01   stopping-criterion for IOM
   NSW    =   1000    number of steps for IOM
   NBLOCK =      1;   KBLOCK =   1000    inner block; outer block 
   IBRION =      2    ionic relax: 0-MD 1-quasi-New 2-CG
   NFREE  =      1    steps in history (QN), initial steepest desc. (CG)
   ISIF   =      2    stress and relaxation
   IWAVPR =     11    prediction:  0-non 1-charg 2-wave 3-comb
   ISYM   =      2    0-nonsym 1-usesym 2-fastsym
   LCORR  =      T    Harris-Foulkes like correction to forces

   POTIM  = 0.5000    time-step for ionic-motion
   TEIN   =    0.0    initial temperature
   TEBEG  =    0.0;   TEEND  =   0.0 temperature during run
   SMASS  =  -3.00    Nose mass-parameter (am)
   estimated Nose-frequenzy (Omega)   =  0.10E-29 period in steps =****** mass=  -0.158E-25a.u.
   SCALEE = 1.0000    scale energy and forces
   NPACO  =    256;   APACO  = 16.0  distance and # of slots for P.C.
   PSTRESS=    0.0 pullay stress

  Mass of Ions in am
   POMASS =  12.01 26.98 32.07 35.45 63.55
  Ionic Valenz
   ZVAL   =   4.00  3.00  6.00  7.00 11.00
  Atomic Wigner-Seitz radii
   RWIGS  =  -1.00 -1.00 -1.00 -1.00 -1.00
  virtual crystal weights 
   VCA    =   1.00  1.00  1.00  1.00  1.00
   NELECT =     868.0000    total number of electrons
   NUPDOWN=      -1.0000    fix difference up-down

 DOS related values:
   EMIN   =  10.00;   EMAX   =-10.00  energy-range for DOS
   EFERMI =   0.00
   ISMEAR =     0;   SIGMA  =   0.05  broadening in eV -4-tet -1-fermi 0-gaus

 Electronic relaxation 2 (details)
   IALGO  =     68    algorithm
   LDIAG  =      T    sub-space diagonalisation (order eigenvalues)
   LSUBROT=      F    optimize rotation matrix (better conditioning)
   TURBO    =      0    0=normal 1=particle mesh
   IRESTART =      0    0=no restart 2=restart with 2 vectors
   NREBOOT  =      0    no. of reboots
   NMIN     =      0    reboot dimension
   EREF     =   0.00    reference energy to select bands
   IMIX   =      4    mixing-type and parameters
     AMIX     =   0.40;   BMIX     =  1.00
     AMIX_MAG =   1.60;   BMIX_MAG =  1.00
     AMIN     =   0.10
     WC   =   100.;   INIMIX=   1;  MIXPRE=   1;  MAXMIX= -45

 Intra band minimization:
   WEIMIN = 0.0010     energy-eigenvalue tresh-hold
   EBREAK =  0.42E-09  absolut break condition
   DEPER  =   0.30     relativ break condition  

   TIME   =   0.40     timestep for ELM

  volume/ion in A,a.u.               =      86.23       581.89
  Fermi-wavevector in a.u.,A,eV,Ry     =   0.680756  1.286443  6.305340  0.463429
  Thomas-Fermi vector in A             =   1.759340
 
 Write flags
   LWAVE        =      F    write WAVECAR
   LDOWNSAMPLE  =      F    k-point downsampling of WAVECAR
   LCHARG       =      F    write CHGCAR
   LVTOT        =      F    write LOCPOT, total local potential
   LVHAR        =      F    write LOCPOT, Hartree potential only
   LELF         =      F    write electronic localiz. function (ELF)
   LORBIT       =      0    0 simple, 1 ext, 2 COOP (PROOUT), +10 PAW based schemes


 Dipole corrections
   LMONO  =      F    monopole corrections only (constant potential shift)
   LDIPOL =      F    correct potential (dipole corrections)
   IDIPOL =      0    1-x, 2-y, 3-z, 4-all directions 
   EPSILON=  1.0000000 bulk dielectric constant

 Exchange correlation treatment:
   GGA     =    --    GGA type
   LEXCH   =     8    internal setting for exchange type
   VOSKOWN=      0    Vosko Wilk Nusair interpolation
   LHFCALC =     F    Hartree Fock is set to
   LHFONE  =     F    Hartree Fock one center treatment
   AEXX    =    0.0000 exact exchange contribution

 Linear response parameters
   LEPSILON=     F    determine dielectric tensor
   LRPA    =     F    only Hartree local field effects (RPA)
   LNABLA  =     F    use nabla operator in PAW spheres
   LVEL    =     F    velocity operator in full k-point grid
   LINTERFAST=   F  fast interpolation
   KINTER  =     0    interpolate to denser k-point grid
   CSHIFT  =0.1000    complex shift for real part using Kramers Kronig
   OMEGAMAX=  -1.0    maximum frequency
   DEG_THRESHOLD= 0.2000000E-02 threshold for treating states as degnerate
   RTIME   =   -0.100 relaxation time in fs
  (WPLASMAI=    0.000 imaginary part of plasma frequency in eV, 0.658/RTIME)
   DFIELD  = 0.0000000 0.0000000 0.0000000 field for delta impulse in time
 
 Orbital magnetization related:
   ORBITALMAG=     F  switch on orbital magnetization
   LCHIMAG   =     F  perturbation theory with respect to B field
   DQ        =  0.001000  dq finite difference perturbation B field
   LLRAUG    =     F  two centre corrections for induced B field



--------------------------------------------------------------------------------------------------------


 conjugate gradient relaxation of ions
 charge density and potential will be updated during run
 spin polarized calculation
 RMM-DIIS sequential band-by-band and
  variant of blocked Davidson during initial phase
 perform sub-space diagonalisation
    before iterative eigenvector-optimisation
 modified Broyden-mixing scheme, WC =      100.0
 initial mixing is a Kerker type mixing with AMIX =  0.4000 and BMIX =      1.0000
 Hartree-type preconditioning will be used
 using additional bands          156
 reciprocal scheme for non local part
 use partial core corrections
 calculate Harris-corrections to forces 
   (improved forces if not selfconsistent)
 use gradient corrections 
 use of overlap-Matrix (Vanderbilt PP)
 Gauss-broadening in eV      SIGMA  =   0.05


--------------------------------------------------------------------------------------------------------


  energy-cutoff  :      500.00
  volume of cell :    12071.71
      direct lattice vectors                 reciprocal lattice vectors
    26.266500473  0.000000000  0.000000000     0.038071307  0.021977647  0.000000000
   -13.132880290 22.749747098  0.000000000     0.000000000  0.043956533  0.000000000
     0.000000000  0.000000000 20.201799393     0.000000000  0.000000000  0.049500541

  length of vectors
    26.266500473 26.268299103 20.201799393     0.043959543  0.043956533  0.049500541


 
 k-points in units of 2pi/SCALE and weight: K-Points                                
   0.00000000  0.00000000  0.00000000       0.111
   0.01269044  0.00732588  0.00000000       0.222
   0.00000000  0.01465218  0.00000000       0.222
   0.01269044  0.02197806  0.00000000       0.222
  -0.01269044  0.00732630  0.00000000       0.222
 
 k-points in reciprocal lattice and weights: K-Points                                
   0.00000000  0.00000000  0.00000000       0.111
   0.33333333  0.00000000  0.00000000       0.222
   0.00000000  0.33333333  0.00000000       0.222
   0.33333333  0.33333333  0.00000000       0.222
  -0.33333333  0.33333333  0.00000000       0.222
 
 position of ions in fractional coordinates (direct lattice) 
   0.02980496  0.30218825  0.50001190
   0.02984702  0.06202942  0.49999706
   0.27005327  0.30220454  0.50001425
   0.06091442  0.03095775  0.49999875
   0.30100426  0.27100923  0.49998900
   0.30101723  0.03100302  0.49998954
   0.36326080  0.30211553  0.49995164
   0.36326635  0.06214889  0.49995729
   0.60317546  0.30208670  0.50062705
   0.39437732  0.03103252  0.49996159
   0.63430456  0.27097832  0.50062390
   0.63434245  0.03103105  0.49996058
   0.69654801  0.30210167  0.50065734
   0.69655676  0.06213981  0.49995947
   0.93653048  0.30213892  0.49996078
   0.72765502  0.03100362  0.49999230
   0.96764862  0.27101999  0.49999162
   0.96771553  0.03095765  0.49999972
   0.02986284  0.63544604  0.49999470
   0.02987545  0.39543758  0.49999310
   0.26997658  0.63550906  0.49999956
   0.06083963  0.36425758  0.50001184
   0.30104625  0.60443529  0.49999687
   0.30109356  0.36426676  0.50001372
   0.36317889  0.63549390  0.49999863
   0.36323896  0.39544566  0.49999161
   0.60321983  0.63545630  0.49999105
   0.39437600  0.36433365  0.49995419
   0.63431974  0.60431219  0.49995903
   0.63431222  0.36435525  0.50063855
   0.69655679  0.63541359  0.49995997
   0.69659188  0.39550258  0.50065524
   0.93652371  0.63543146  0.49995677
   0.72768629  0.36434007  0.50065568
   0.96761975  0.60431070  0.49995976
   0.96763037  0.36433313  0.49996245
   0.02983389  0.96883150  0.49999616
   0.02981114  0.72863257  0.50001153
   0.27003772  0.96887546  0.50001385
   0.06084327  0.69758479  0.50001169
   0.30108383  0.93783161  0.50001336
   0.30105514  0.69762667  0.49999701
   0.36322143  0.96880249  0.49999586
   0.36318737  0.72869191  0.49999912
   0.60323083  0.96880671  0.49999214
   0.39425482  0.69762621  0.49999650
   0.63438990  0.93782480  0.50001105
   0.63440573  0.69758345  0.50001342
   0.69648066  0.96886790  0.50001161
   0.69648394  0.72861393  0.50001390
   0.93663926  0.96884142  0.49999695
   0.72766969  0.69766451  0.49999213
   0.96769640  0.93775509  0.49999892
   0.96766400  0.69765560  0.49998838
   0.65607527  0.33465825  0.74864599
   0.06789781  0.13814886  0.49997588
   0.19393215  0.26414799  0.49999625
   0.13704584  0.06902603  0.49999856
   0.26301865  0.19497667  0.49996142
   0.26301337  0.06905636  0.49995515
   0.40135176  0.26412065  0.49990235
   0.40135989  0.13823431  0.49989459
   0.52742416  0.26425423  0.50018843
   0.47045991  0.06918534  0.49989570
   0.59640589  0.19519768  0.50012465
   0.59635570  0.06914946  0.49991572
   0.73444316  0.26418171  0.50009226
   0.73451702  0.13823297  0.49990914
   0.86042179  0.26417549  0.49991049
   0.80370196  0.06906489  0.49996637
   0.92958716  0.19497931  0.49996527
   0.92963725  0.06900067  0.49999791
   0.06782482  0.59735480  0.49996786
   0.06783958  0.47146255  0.49996517
   0.19384036  0.59745051  0.49999858
   0.13696564  0.40233265  0.49999475
   0.26295357  0.52829241  0.49997620
   0.26303046  0.40230254  0.49999690
   0.40120046  0.59740347  0.49999987
   0.40127225  0.47146276  0.49996285
   0.52719462  0.59740559  0.49995848
   0.47046916  0.40229789  0.49990465
   0.59635350  0.52819788  0.49989600
   0.59640568  0.40223042  0.50012067
   0.73448205  0.59723582  0.49989609
   0.73446091  0.47127919  0.50016570
   0.86042459  0.59731790  0.49991312
   0.80352197  0.40227414  0.50008947
   0.92947391  0.52821520  0.49990876
   0.92948337  0.40226954  0.49991359
   0.06788396  0.93072166  0.49997486
   0.06783400  0.80472684  0.49999800
   0.19393062  0.93084981  0.49999506
   0.13696062  0.73563927  0.49999569
   0.26302150  0.86173815  0.49999491
   0.26295959  0.73567507  0.49997784
   0.40124387  0.93079140  0.49996233
   0.40122266  0.80480999  0.49999815
   0.52719318  0.93084046  0.49996325
   0.47037223  0.73569212  0.49997596
   0.59632278  0.86172349  0.49999634
   0.59633314  0.73559732  0.49999586
   0.73451651  0.93078330  0.49999652
   0.73452812  0.80471363  0.49999579
   0.86051385  0.93078638  0.49997659
   0.80369543  0.73563161  0.49995936
   0.92962935  0.86164402  0.49999921
   0.92958738  0.73561778  0.49995978
   0.06782153  0.26408928  0.49999493
   0.72144433  0.31736043  0.70470614
   0.67109360  0.41884954  0.71179701
   0.56981433  0.26648659  0.71643373
   0.66072975  0.33525937  0.85637316
   0.49898298  0.33319727  0.50116126
   0.99871892  0.16652881  0.50004281
   0.83204139  0.16664596  0.50021506
   0.83179705  0.33319993  0.50120956
   0.33204764  0.49984044  0.50004443
   0.16541858  0.49990300  0.50004214
   0.16539700  0.66655421  0.50004107
   0.66538434  0.49957043  0.50152001
   0.49882940  0.49984926  0.50024955
   0.49874271  0.66654898  0.50004672
   0.99859546  0.49978963  0.50020338
   0.83182385  0.49966778  0.50097701
   0.83199280  0.66641651  0.50024564
   0.33204970  0.83319539  0.50004536
   0.16542330  0.83324993  0.50004149
   0.16541239  0.99988234  0.50004937
   0.66538182  0.83318667  0.50004119
   0.49876963  0.83325475  0.50004268
   0.49878459  0.00000047  0.50021525
   0.99871742  0.83317891  0.50004455
   0.83208443  0.83323879  0.50004684
   0.83205877  0.99987963  0.50004142
   0.33218440  0.16658317  0.50026914
   0.16543477  0.16659357  0.50004664
   0.16540187  0.33321923  0.50004045
   0.66541539  0.16678633  0.50096592
   0.49899293  0.16686558  0.50136546
 
 position of ions in cartesian coordinates  (Angst):
  -3.18573013  6.87470622 10.10114017
  -0.03064806  1.41115357 10.10084022
   3.12453837  6.87507680 10.10118762
   1.19344412  0.70428100 10.10087445
   4.34719682  6.16539141 10.10067746
   7.49951015  0.70531084 10.10068848
   5.57394274  6.87305199 10.09992273
   8.72554182  1.41387145 10.10003698
  11.87604019  6.87239595 10.11356725
   9.95136583  0.70598189 10.10012379
  13.10223512  6.16468831 10.11350360
  16.25442920  0.70594846 10.10010340
  14.32841358  6.87273653 10.11417908
  17.48003380  1.41366500 10.10008086
  20.63142393  6.87358401 10.10010739
  18.70578410  0.70532462 10.10074409
  21.85746983  6.16563630 10.10073035
  25.01193739  0.70427870 10.10089400
  -7.56084457 14.45623665 10.10079258
  -4.40851088  8.99610487 10.10076033
  -1.25472459 14.45767047 10.10089087
  -3.18570708  8.28676784 10.10113898
  -0.03054478 13.75075006 10.10083652
   3.12480236  8.28697666 10.10117684
   1.19357322 14.45732543 10.10087209
   4.34767588  8.99628868 10.10073012
   7.49910229 14.45647022 10.10071883
   5.57412733  8.28849831 10.09997432
   8.72500016 13.74794959 10.10007203
  11.87612824  8.28898983 10.11379949
   9.95129868 14.45549841 10.10009092
  13.10294294  8.99758364 10.11413664
  16.25415533 14.45590493 10.10002640
  14.32893781  8.28864446 10.11414554
  17.47964461 13.74791550 10.10008679
  20.63152030  8.28848657 10.10014117
 -11.93991619 22.04067163 10.10082202
  -8.78600996 16.57620667 10.10113268
  -5.63117934 22.04167158 10.10117941
  -7.56315777 15.86987765 10.10113579
  -4.40801163 21.33543203 10.10116969
  -1.25418263 15.87083040 10.10083936
  -3.18261138 22.04001171 10.10081600
  -0.03016248 16.57755660 10.10088185
   3.12154046 22.04010755 10.10074095
   1.19385302 15.87081984 10.10082896
   4.34686169 21.33527708 10.10112302
   7.50233832 15.86984713 10.10117079
   5.57008335 22.04149963 10.10113423
   8.72539607 16.57578271 10.10118054
  11.87855732 22.04089725 10.10083799
   9.95099161 15.87169127 10.10074079
  13.10257251 21.33369118 10.10087788
  16.25491937 15.87148850 10.10066503
  12.83777470  7.61339051 15.12399616
  -0.03085449  3.14285154 10.10041249
   1.62489512  6.00929986 10.10082399
   2.69320394  1.57032483 10.10087055
   4.34797420  4.43567000 10.10012031
   6.00153181  1.57101481 10.09999372
   7.07344136  6.00867807 10.09892698
   8.72690506  3.14479554 10.09877026
  10.38316771  6.01171696 10.10470628
  11.44873272  1.57394909 10.09879260
  13.10198772  4.44069795 10.10341781
  14.75604559  1.57313277 10.09919717
  15.82178475  6.01006719 10.10276354
  17.47779452  3.14476517 10.09906419
  19.13088408  6.00992570 10.09909144
  20.20341686  1.57120878 10.10022031
  21.85636157  4.43572993 10.10019811
  23.51213965  1.56974787 10.10085751
  -6.06346848 13.58967067 10.10025049
  -4.40975275 10.72565374 10.10019614
  -2.75473821 13.59184811 10.10087099
  -1.68617851  9.15296610 10.10079366
  -0.03113076 12.01851869 10.10041881
   1.62549876  9.15228099 10.10083710
   2.69250378 13.59077787 10.10089701
   4.34835381 10.72565856 10.10014923
   6.00190156 13.59082619 10.10006100
   7.07424824  9.15217531 10.09897350
   8.72735992 12.01636823 10.09879864
  10.38304623  9.15064037 10.10333750
  11.44884669 13.58696383 10.09880055
  13.10246469 10.72148238 10.10424717
  14.75583831 13.58883121 10.09914452
  15.82269223  9.15163487 10.10270707
  17.47703992 12.01676219 10.09905641
  19.13131756  9.15153041 10.09915400
 -10.43998204 21.17368239 10.10039183
  -8.78661930 18.30733202 10.10085923
  -7.13086051 21.17659783 10.10079998
  -6.06358627 16.73560732 10.10081262
  -4.40844943 19.60432489 10.10079690
  -2.75450441 16.73642179 10.10045202
  -1.68469978 21.17526895 10.10013871
  -0.03075810 18.30922363 10.10086233
   1.62290364 21.17638509 10.10015719
   2.69327580 16.73680968 10.10041406
   4.34640120 19.60399147 10.10082585
   6.00307305 16.73465298 10.10081603
   7.06931251 21.17508476 10.10082938
   8.72527553 18.30703160 10.10081458
  10.37878142 21.17515464 10.10042671
  11.44930456 16.73543314 10.10007872
  13.10224208 19.60218357 10.10088365
  14.75622697 16.73511848 10.10008711
  -1.68681874  6.00796438 10.10079731
  14.78196129  7.21986944 14.23633211
  12.12657945  9.52872108 14.37958037
  11.46729196  6.06250258 14.47325052
  12.95213712  7.62706599 17.30027881
   8.73069676  7.58015369 10.12435933
  24.04584800  3.78848829 10.10176457
  19.66627424  3.79115343 10.10524438
  17.47252270  7.58021413 10.12533495
   2.15738483 11.37124366 10.10179724
  -2.22019908 11.37266688 10.10175092
  -4.40937638 15.16393967 10.10172944
  10.91651939 11.36510088 10.13160671
   6.53804217 11.37144436 10.10594111
   4.34651762 15.16382078 10.10184356
  19.66593077 11.37008769 10.10500828
  15.28702441 11.36731553 10.12063710
  13.10157113 15.16080696 10.10586198
  -2.22047169 18.95498442 10.10181596
  -6.59788046 18.95622509 10.10173779
  -8.78653050 22.74707035 10.10189711
   6.53511120 18.95478599 10.10173180
   2.15789800 18.95633477 10.10176201
  13.10131951  0.00001065 10.10524818
  15.29077277 18.95460955 10.10179974
  10.91312081 18.95597165 10.10184595
   8.72397271 22.74700861 10.10173636
   6.53760490  3.78972494 10.10633676
   2.15753904  3.78996166 10.10184183
  -0.03160003  7.58065316 10.10171681
  15.28774878  3.79434679 10.12041306
  10.91537247  3.79614975 10.12848447
 


--------------------------------------------------------------------------------------------------------


 k-point  1 :   0.0000 0.0000 0.0000  plane waves:  306477
 k-point  2 :   0.3333 0.0000 0.0000  plane waves:  306541
 k-point  3 :   0.0000 0.3333 0.0000  plane waves:  306545
 k-point  4 :   0.3333 0.3333 0.0000  plane waves:  306448
 k-point  5 :  -0.3333 0.3333 0.0000  plane waves:  306545

 maximum and minimum number of plane-waves per node :      9609     9550

 maximum number of plane-waves:    306545
 maximum index in each direction: 
   IXMAX=   48   IYMAX=   47   IZMAX=   36
   IXMIN=  -48   IYMIN=  -48   IZMIN=  -36


 parallel 3D FFT for wavefunctions:
    minimum data exchange during FFTs selected (reduces bandwidth)
 parallel 3D FFT for charge:
    minimum data exchange during FFTs selected (reduces bandwidth)


 total amount of memory used by VASP MPI-rank0  1085483. kBytes
=======================================================================

   base      :      30000. kBytes
   nonl-proj :      55993. kBytes
   fftplans  :      22195. kBytes
   grid      :      67313. kBytes
   one-center:        155. kBytes
   wavefun   :     909827. kBytes
 
     INWAV:  cpu time    0.0000: real time    0.0000
 Broyden mixing: mesh for mixing (old mesh)
   NGX = 95   NGY = 95   NGZ = 73
  (NGX  =288   NGY  =288   NGZ  =224)
  gives a total of 658825 points

 initial charge density was supplied:
 charge density of overlapping atoms calculated
 number of electron     868.0000000 magnetization     140.0000000
 keeping initial charge density in first step


--------------------------------------------------------------------------------------------------------


 Maximum index for augmentation-charges          391 (set IRDMAX)


--------------------------------------------------------------------------------------------------------


 First call to EWALD:  gamma=   0.077
 Maximum number of real-space cells 3x 3x 3
 Maximum number of reciprocal cells 3x 3x 2

    FEWALD:  cpu time    0.0568: real time    0.0572


--------------------------------------- Iteration      1(   1)  ---------------------------------------


    POTLOK:  cpu time    1.6234: real time    1.6635
    SETDIJ:  cpu time    0.0458: real time    0.0480
     EDDAV:  cpu time  820.2701: real time  820.9928
       DOS:  cpu time    0.0138: real time    0.0200
    --------------------------------------------
      LOOP:  cpu time  821.9532: real time  822.7243

 eigenvalue-minimisations  : 12040
 total energy-change (2. order) : 0.7829238E+04  (-0.2714258E+05)
 number of electron     868.0000000 magnetization     140.0000000
 augmentation part      868.0000000 magnetization     140.0000000

 Free energy of the ion-electron system (eV)
  ---------------------------------------------------
  alpha Z        PSCENC =       315.09161757
  Ewald energy   TEWEN  =    106271.72894380
  -Hartree energ DENC   =   -160841.61297765
  -exchange      EXHF   =         0.00000000
  -V(xc)+E(xc)   XCENC  =      2664.49412410
  PAW double counting   =     52118.65182442   -54801.79846914
  entropy T*S    EENTRO =        -0.11264552
  eigenvalues    EBANDS =       -40.35211920
  atomic energy  EATOM  =     62143.14740716
  Solvation  Ediel_sol  =         0.00000000
  ---------------------------------------------------
  free energy    TOTEN  =      7829.23770554 eV

  energy without entropy =     7829.35035106  energy(sigma->0) =     7829.29402830


--------------------------------------------------------------------------------------------------------




--------------------------------------- Iteration      1(   2)  ---------------------------------------


     EDDAV:  cpu time  963.6709: real time  964.1214
       DOS:  cpu time    0.0137: real time    0.0137
    --------------------------------------------
      LOOP:  cpu time  963.6846: real time  964.1352

 eigenvalue-minimisations  : 14752
 total energy-change (2. order) :-0.6821714E+04  (-0.5854676E+04)
 number of electron     868.0000000 magnetization     140.0000000
 augmentation part      868.0000000 magnetization     140.0000000

 Free energy of the ion-electron system (eV)
  ---------------------------------------------------
  alpha Z        PSCENC =       315.09161757
  Ewald energy   TEWEN  =    106271.72894380
  -Hartree energ DENC   =   -160841.61297765
  -exchange      EXHF   =         0.00000000
  -V(xc)+E(xc)   XCENC  =      2664.49412410
  PAW double counting   =     52118.65182442   -54801.79846914
  entropy T*S    EENTRO =        -0.03267740
  eigenvalues    EBANDS =     -6862.14646353
  atomic energy  EATOM  =     62143.14740716
  Solvation  Ediel_sol  =         0.00000000
  ---------------------------------------------------
  free energy    TOTEN  =      1007.52332932 eV

  energy without entropy =     1007.55600672  energy(sigma->0) =     1007.53966802


--------------------------------------------------------------------------------------------------------




--------------------------------------- Iteration      1(   3)  ---------------------------------------


     EDDAV:  cpu time 1108.0961: real time 1108.5892
       DOS:  cpu time    0.0138: real time    0.0138
    --------------------------------------------
      LOOP:  cpu time 1108.1099: real time 1108.6030

 eigenvalue-minimisations  : 17456
 total energy-change (2. order) :-0.1746746E+04  (-0.1716195E+04)
 number of electron     868.0000000 magnetization     140.0000000
 augmentation part      868.0000000 magnetization     140.0000000

 Free energy of the ion-electron system (eV)
  ---------------------------------------------------
  alpha Z        PSCENC =       315.09161757
  Ewald energy   TEWEN  =    106271.72894380
  -Hartree energ DENC   =   -160841.61297765
  -exchange      EXHF   =         0.00000000
  -V(xc)+E(xc)   XCENC  =      2664.49412410
  PAW double counting   =     52118.65182442   -54801.79846914
  entropy T*S    EENTRO =        -0.10647030
  eigenvalues    EBANDS =     -8608.81875643
  atomic energy  EATOM  =     62143.14740716
  Solvation  Ediel_sol  =         0.00000000
  ---------------------------------------------------
  free energy    TOTEN  =      -739.22275647 eV

  energy without entropy =     -739.11628617  energy(sigma->0) =     -739.16952132


--------------------------------------------------------------------------------------------------------




--------------------------------------- Iteration      1(   4)  ---------------------------------------


     EDDAV:  cpu time 1205.4444: real time 1206.0551
       DOS:  cpu time    0.0142: real time    0.0142
    --------------------------------------------
      LOOP:  cpu time 1205.4586: real time 1206.0693

 eigenvalue-minimisations  : 19280
 total energy-change (2. order) :-0.1644421E+03  (-0.1583619E+03)
 number of electron     868.0000000 magnetization     140.0000000
 augmentation part      868.0000000 magnetization     140.0000000

 Free energy of the ion-electron system (eV)
  ---------------------------------------------------
  alpha Z        PSCENC =       315.09161757
  Ewald energy   TEWEN  =    106271.72894380
  -Hartree energ DENC   =   -160841.61297765
  -exchange      EXHF   =         0.00000000
  -V(xc)+E(xc)   XCENC  =      2664.49412410
  PAW double counting   =     52118.65182442   -54801.79846914
  entropy T*S    EENTRO =        -0.12541760
  eigenvalues    EBANDS =     -8773.24189484
  atomic energy  EATOM  =     62143.14740716
  Solvation  Ediel_sol  =         0.00000000
  ---------------------------------------------------
  free energy    TOTEN  =      -903.66484219 eV

  energy without entropy =     -903.53942459  energy(sigma->0) =     -903.60213339


--------------------------------------------------------------------------------------------------------




--------------------------------------- Iteration      1(   5)  ---------------------------------------


     EDDAV:  cpu time 1245.1518: real time 1245.8045
       DOS:  cpu time    0.0140: real time    0.0140
    CHARGE:  cpu time   13.0798: real time   13.0965
    MIXING:  cpu time    0.0328: real time    0.0330
    --------------------------------------------
      LOOP:  cpu time 1258.2785: real time 1258.9481

 eigenvalue-minimisations  : 20016
 total energy-change (2. order) :-0.6363104E+01  (-0.5928240E+01)
 number of electron     868.0000324 magnetization     128.3491681
 augmentation part      113.3736281 magnetization     107.3423014

 Broyden mixing:
  rms(total) = 0.12562E+02    rms(broyden)= 0.12560E+02
  rms(prec ) = 0.13270E+02
  weight for this iteration     100.00

 Free energy of the ion-electron system (eV)
  ---------------------------------------------------
  alpha Z        PSCENC =       315.09161757
  Ewald energy   TEWEN  =    106271.72894380
  -Hartree energ DENC   =   -160841.61297765
  -exchange      EXHF   =         0.00000000
  -V(xc)+E(xc)   XCENC  =      2664.49412410
  PAW double counting   =     52118.65182442   -54801.79846914
  entropy T*S    EENTRO =        -0.20580225
  eigenvalues    EBANDS =     -8779.52461376
  atomic energy  EATOM  =     62143.14740716
  Solvation  Ediel_sol  =         0.00000000
  ---------------------------------------------------
  free energy    TOTEN  =      -910.02794576 eV

  energy without entropy =     -909.82214350  energy(sigma->0) =     -909.92504463


--------------------------------------------------------------------------------------------------------




--------------------------------------- Iteration      1(   6)  ---------------------------------------


    POTLOK:  cpu time    1.6034: real time    1.6041
    SETDIJ:  cpu time    0.0459: real time    0.0459
    EDDIAG:  cpu time   67.6997: real time   67.7268
  RMM-DIIS:  cpu time  626.8968: real time  627.1662
    ORTHCH:  cpu time   20.1393: real time   20.1452
       DOS:  cpu time    0.0144: real time    0.0144
    CHARGE:  cpu time   12.8973: real time   12.9011
    MIXING:  cpu time    0.0300: real time    0.0334
    --------------------------------------------
      LOOP:  cpu time  729.3267: real time  729.6371

 eigenvalue-minimisations  : 13997
 total energy-change (2. order) : 0.4663672E+02  (-0.2885020E+03)
 number of electron     868.0000639 magnetization     120.8329064
 augmentation part      176.9435802 magnetization     110.5809870

 Broyden mixing:
  rms(total) = 0.10693E+02    rms(broyden)= 0.10691E+02
  rms(prec ) = 0.11203E+02
  weight for this iteration     100.00

 eigenvalues of (default mixing * dielectric matrix)
  average eigenvalue GAMMA=   0.5249
  0.5249

 Free energy of the ion-electron system (eV)
  ---------------------------------------------------
  alpha Z        PSCENC =       315.09161757
  Ewald energy   TEWEN  =    106271.72894380
  -Hartree energ DENC   =   -159315.33949881
  -exchange      EXHF   =         0.00000000
  -V(xc)+E(xc)   XCENC  =      2763.49237967
  PAW double counting   =     63914.27095805   -66199.29300619
  entropy T*S    EENTRO =        -0.07353393
  eigenvalues    EBANDS =    -10756.41649410
  atomic energy  EATOM  =     62143.14740716
  Solvation  Ediel_sol  =         0.00000000
  ---------------------------------------------------
  free energy    TOTEN  =      -863.39122678 eV

  energy without entropy =     -863.31769285  energy(sigma->0) =     -863.35445982


--------------------------------------------------------------------------------------------------------




--------------------------------------- Iteration      1(   7)  ---------------------------------------


    POTLOK:  cpu time    1.6094: real time    1.6135
    SETDIJ:  cpu time    0.0456: real time    0.0456
    EDDIAG:  cpu time   67.7195: real time   67.7415
  RMM-DIIS:  cpu time  545.1559: real time  545.3650
    ORTHCH:  cpu time   20.1039: real time   20.1104
       DOS:  cpu time    0.0130: real time    0.0130
    CHARGE:  cpu time   12.8361: real time   12.8405
    MIXING:  cpu time    0.0348: real time    0.0358
    --------------------------------------------
      LOOP:  cpu time  647.5181: real time  647.7653

 eigenvalue-minimisations  : 12149
 total energy-change (2. order) : 0.2737197E+03  (-0.6794178E+02)
 number of electron     868.0000543 magnetization     102.4921901
 augmentation part      157.6142894 magnetization      82.5252485

 Broyden mixing:
  rms(total) = 0.49084E+01    rms(broyden)= 0.49083E+01
  rms(prec ) = 0.50678E+01
  weight for this iteration     100.00

 eigenvalues of (default mixing * dielectric matrix)
  average eigenvalue GAMMA=   0.9697
  1.2734  0.6660

 Free energy of the ion-electron system (eV)
  ---------------------------------------------------
  alpha Z        PSCENC =       315.09161757
  Ewald energy   TEWEN  =    106271.72894380
  -Hartree energ DENC   =   -160448.18770282
  -exchange      EXHF   =         0.00000000
  -V(xc)+E(xc)   XCENC  =      2833.08614063
  PAW double counting   =     72000.13324534   -74691.39488832
  entropy T*S    EENTRO =        -0.01456292
  eigenvalues    EBANDS =     -9013.26169685
  atomic energy  EATOM  =     62143.14740716
  Solvation  Ediel_sol  =         0.00000000
  ---------------------------------------------------
  free energy    TOTEN  =      -589.67149641 eV

  energy without entropy =     -589.65693349  energy(sigma->0) =     -589.66421495


--------------------------------------------------------------------------------------------------------




--------------------------------------- Iteration      1(   8)  ---------------------------------------


    POTLOK:  cpu time    1.6055: real time    1.6083
    SETDIJ:  cpu time    0.0460: real time    0.0461
    EDDIAG:  cpu time   67.5561: real time   67.5784
  RMM-DIIS:  cpu time  594.7215: real time  594.9555
    ORTHCH:  cpu time   20.1435: real time   20.1495
       DOS:  cpu time    0.0142: real time    0.0143
    CHARGE:  cpu time   12.9302: real time   12.9346
    MIXING:  cpu time    0.0316: real time    0.0326
    --------------------------------------------
      LOOP:  cpu time  697.0486: real time  697.3191

 eigenvalue-minimisations  : 13269
 total energy-change (2. order) :-0.6185593E+02  (-0.4473541E+02)
 number of electron     868.0000453 magnetization      91.2579309
 augmentation part      126.3438298 magnetization      83.7765426

 Broyden mixing:
  rms(total) = 0.55297E+01    rms(broyden)= 0.55281E+01
  rms(prec ) = 0.58850E+01
  weight for this iteration     100.00

 eigenvalues of (default mixing * dielectric matrix)
  average eigenvalue GAMMA=   1.0250
  1.9675  0.5537  0.5537

 Free energy of the ion-electron system (eV)
  ---------------------------------------------------
  alpha Z        PSCENC =       315.09161757
  Ewald energy   TEWEN  =    106271.72894380
  -Hartree energ DENC   =   -161617.11536985
  -exchange      EXHF   =         0.00000000
  -V(xc)+E(xc)   XCENC  =      2838.65905631
  PAW double counting   =     90213.21692761   -93144.18408958
  entropy T*S    EENTRO =        -0.07127733
  eigenvalues    EBANDS =     -7672.00064370
  atomic energy  EATOM  =     62143.14740716
  Solvation  Ediel_sol  =         0.00000000
  ---------------------------------------------------
  free energy    TOTEN  =      -651.52742801 eV

  energy without entropy =     -651.45615069  energy(sigma->0) =     -651.49178935


--------------------------------------------------------------------------------------------------------




--------------------------------------- Iteration      1(   9)  ---------------------------------------


    POTLOK:  cpu time    1.6014: real time    1.6051
    SETDIJ:  cpu time    0.0455: real time    0.0455
    EDDIAG:  cpu time   67.5152: real time   67.5404
  RMM-DIIS:  cpu time  578.2922: real time  578.5160
    ORTHCH:  cpu time   20.1584: real time   20.1642
       DOS:  cpu time    0.0143: real time    0.0143
    CHARGE:  cpu time   12.8897: real time   12.8935
    MIXING:  cpu time    0.0361: real time    0.0361
    --------------------------------------------
      LOOP:  cpu time  680.5528: real time  680.8152

 eigenvalue-minimisations  : 12902
 total energy-change (2. order) : 0.4559156E+02  (-0.4616515E+01)
 number of electron     868.0000485 magnetization      84.3167557
 augmentation part      140.9127142 magnetization      72.6585786

 Broyden mixing:
  rms(total) = 0.25651E+01    rms(broyden)= 0.25640E+01
  rms(prec ) = 0.27416E+01
  weight for this iteration     100.00

 eigenvalues of (default mixing * dielectric matrix)
  average eigenvalue GAMMA=   0.9758
  2.1609  0.6403  0.6403  0.4619

 Free energy of the ion-electron system (eV)
  ---------------------------------------------------
  alpha Z        PSCENC =       315.09161757
  Ewald energy   TEWEN  =    106271.72894380
  -Hartree energ DENC   =   -161412.98925577
  -exchange      EXHF   =         0.00000000
  -V(xc)+E(xc)   XCENC  =      2846.69631038
  PAW double counting   =     97238.30885767  -100102.63313631
  entropy T*S    EENTRO =        -0.07917247
  eigenvalues    EBANDS =     -7905.20744387
  atomic energy  EATOM  =     62143.14740716
  Solvation  Ediel_sol  =         0.00000000
  ---------------------------------------------------
  free energy    TOTEN  =      -605.93587184 eV

  energy without entropy =     -605.85669937  energy(sigma->0) =     -605.89628560


--------------------------------------------------------------------------------------------------------




--------------------------------------- Iteration      1(  10)  ---------------------------------------


    POTLOK:  cpu time    1.6086: real time    1.6118
    SETDIJ:  cpu time    0.0459: real time    0.0459
    EDDIAG:  cpu time   67.6876: real time   67.7268
  RMM-DIIS:  cpu time  547.1730: real time  547.3673
    ORTHCH:  cpu time   20.1569: real time   20.1627
       DOS:  cpu time    0.0144: real time    0.0144
    CHARGE:  cpu time   13.0264: real time   13.0305
    MIXING:  cpu time    0.0404: real time    0.0404
    --------------------------------------------
      LOOP:  cpu time  649.7532: real time  649.9998

 eigenvalue-minimisations  : 12198
 total energy-change (2. order) :-0.3351578E+02  (-0.2774260E+01)
 number of electron     868.0000498 magnetization      73.3793801
 augmentation part      146.3682236 magnetization      61.4021705

 Broyden mixing:
  rms(total) = 0.17864E+01    rms(broyden)= 0.17852E+01
  rms(prec ) = 0.19635E+01
  weight for this iteration     100.00

 eigenvalues of (default mixing * dielectric matrix)
  average eigenvalue GAMMA=   0.9686
  2.4546  0.9104  0.5811  0.5811  0.3157

 Free energy of the ion-electron system (eV)
  ---------------------------------------------------
  alpha Z        PSCENC =       315.09161757
  Ewald energy   TEWEN  =    106271.72894380
  -Hartree energ DENC   =   -161334.28056932
  -exchange      EXHF   =         0.00000000
  -V(xc)+E(xc)   XCENC  =      2814.61935559
  PAW double counting   =     99605.13762340  -102424.03015424
  entropy T*S    EENTRO =        -0.07826549
  eigenvalues    EBANDS =     -8030.78760734
  atomic energy  EATOM  =     62143.14740716
  Solvation  Ediel_sol  =         0.00000000
  ---------------------------------------------------
  free energy    TOTEN  =      -639.45164888 eV

  energy without entropy =     -639.37338339  energy(sigma->0) =     -639.41251613


--------------------------------------------------------------------------------------------------------




--------------------------------------- Iteration      1(  11)  ---------------------------------------


    POTLOK:  cpu time    1.6248: real time    1.6301
    SETDIJ:  cpu time    0.0462: real time    0.0462
    EDDIAG:  cpu time   67.6433: real time   67.6823
  RMM-DIIS:  cpu time  554.2903: real time  554.4968
    ORTHCH:  cpu time   20.1467: real time   20.1521
       DOS:  cpu time    0.0144: real time    0.0144
    CHARGE:  cpu time   12.8880: real time   12.8920
    MIXING:  cpu time    0.0432: real time    0.0432
    --------------------------------------------
      LOOP:  cpu time  656.6969: real time  656.9571

 eigenvalue-minimisations  : 12344
 total energy-change (2. order) :-0.5183774E+02  (-0.3070512E+01)
 number of electron     868.0000516 magnetization      63.5665510
 augmentation part      151.4173450 magnetization      49.5802032

 Broyden mixing:
  rms(total) = 0.14902E+01    rms(broyden)= 0.14896E+01
  rms(prec ) = 0.15790E+01
  weight for this iteration     100.00

 eigenvalues of (default mixing * dielectric matrix)
  average eigenvalue GAMMA=   1.0068
  2.6723  1.2719  0.6631  0.5840  0.5840  0.2652

 Free energy of the ion-electron system (eV)
  ---------------------------------------------------
  alpha Z        PSCENC =       315.09161757
  Ewald energy   TEWEN  =    106271.72894380
  -Hartree energ DENC   =   -161276.92151433
  -exchange      EXHF   =         0.00000000
  -V(xc)+E(xc)   XCENC  =      2776.27961380
  PAW double counting   =    102280.08105201  -105047.61686711
  entropy T*S    EENTRO =        -0.05186621
  eigenvalues    EBANDS =     -8153.02777464
  atomic energy  EATOM  =     62143.14740716
  Solvation  Ediel_sol  =         0.00000000
  ---------------------------------------------------
  free energy    TOTEN  =      -691.28938795 eV

  energy without entropy =     -691.23752175  energy(sigma->0) =     -691.26345485


--------------------------------------------------------------------------------------------------------




--------------------------------------- Iteration      1(  12)  ---------------------------------------


    POTLOK:  cpu time    1.6205: real time    1.6240
    SETDIJ:  cpu time    0.0454: real time    0.0455
    EDDIAG:  cpu time   67.7658: real time   67.7882
  RMM-DIIS:  cpu time  561.2835: real time  561.4978
    ORTHCH:  cpu time   20.1185: real time   20.1240
       DOS:  cpu time    0.0143: real time    0.0143
    CHARGE:  cpu time   12.9072: real time   12.9110
    MIXING:  cpu time    0.0433: real time    0.0434
    --------------------------------------------
      LOOP:  cpu time  663.7985: real time  664.0481

 eigenvalue-minimisations  : 12510
 total energy-change (2. order) :-0.4153145E+02  (-0.2070082E+01)
 number of electron     868.0000512 magnetization      51.8505597
 augmentation part      149.4037023 magnetization      38.1046665

 Broyden mixing:
  rms(total) = 0.97827E+00    rms(broyden)= 0.97820E+00
  rms(prec ) = 0.10219E+01
  weight for this iteration     100.00

 eigenvalues of (default mixing * dielectric matrix)
  average eigenvalue GAMMA=   1.0579
  2.4241  2.1421  0.6729  0.6729  0.6138  0.6138  0.2659

 Free energy of the ion-electron system (eV)
  ---------------------------------------------------
  alpha Z        PSCENC =       315.09161757
  Ewald energy   TEWEN  =    106271.72894380
  -Hartree energ DENC   =   -161363.43728978
  -exchange      EXHF   =         0.00000000
  -V(xc)+E(xc)   XCENC  =      2747.80576473
  PAW double counting   =    102742.12252160  -105505.61170192
  entropy T*S    EENTRO =        -0.05275654
  eigenvalues    EBANDS =     -8083.61534094
  atomic energy  EATOM  =     62143.14740716
  Solvation  Ediel_sol  =         0.00000000
  ---------------------------------------------------
  free energy    TOTEN  =      -732.82083432 eV

  energy without entropy =     -732.76807777  energy(sigma->0) =     -732.79445604


--------------------------------------------------------------------------------------------------------




--------------------------------------- Iteration      1(  13)  ---------------------------------------


    POTLOK:  cpu time    1.6127: real time    1.6172
    SETDIJ:  cpu time    0.0460: real time    0.0460
    EDDIAG:  cpu time   67.7689: real time   67.7923
  RMM-DIIS:  cpu time  574.8429: real time  575.0613
    ORTHCH:  cpu time   20.1055: real time   20.1115
       DOS:  cpu time    0.0140: real time    0.0140
    CHARGE:  cpu time   13.0519: real time   13.0566
    MIXING:  cpu time    0.0492: real time    0.0493
    --------------------------------------------
      LOOP:  cpu time  677.4913: real time  677.7482

 eigenvalue-minimisations  : 12806
 total energy-change (2. order) :-0.4561932E+02  (-0.3283178E+01)
 number of electron     868.0000502 magnetization      46.1438386
 augmentation part      145.2096419 magnetization      36.6763446

 Broyden mixing:
  rms(total) = 0.88764E+00    rms(broyden)= 0.88722E+00
  rms(prec ) = 0.92303E+00
  weight for this iteration     100.00

 eigenvalues of (default mixing * dielectric matrix)
  average eigenvalue GAMMA=   1.0280
  2.4238  2.4238  0.7471  0.7471  0.5859  0.5859  0.2660  0.4445

 Free energy of the ion-electron system (eV)
  ---------------------------------------------------
  alpha Z        PSCENC =       315.09161757
  Ewald energy   TEWEN  =    106271.72894380
  -Hartree energ DENC   =   -161435.01760630
  -exchange      EXHF   =         0.00000000
  -V(xc)+E(xc)   XCENC  =      2716.17978229
  PAW double counting   =    101316.77588197  -104081.24493796
  entropy T*S    EENTRO =        -0.06782782
  eigenvalues    EBANDS =     -8025.03341201
  atomic energy  EATOM  =     62143.14740716
  Solvation  Ediel_sol  =         0.00000000
  ---------------------------------------------------
  free energy    TOTEN  =      -778.44015129 eV

  energy without entropy =     -778.37232347  energy(sigma->0) =     -778.40623738


[...]
    -10.43978     21.17447     10.10008        -0.009416      0.003557     -0.000965
     -8.78737     18.30592     10.10119         0.006740      0.041893      0.000320
     -7.12972     21.17704     10.10103        -0.028411     -0.024005     -0.000026
     -6.06485     16.73450     10.10110         0.027263      0.023781      0.000207
     -4.40794     19.60562     10.10101        -0.004441     -0.041710     -0.000079
     -2.75457     16.73654     10.10022        -0.000036      0.001354     -0.000760
     -1.68460     21.17721     10.09987         0.024863     -0.020672     -0.001023
     -0.03108     18.30889     10.10136         0.001505      0.002842      0.001228
      1.62352     21.17718     10.09990        -0.025478     -0.018829     -0.000958
      2.69263     16.73649     10.10013         0.013584      0.006687     -0.000940
      4.34601     19.60522     10.10112         0.007006     -0.037298      0.000271
      6.00366     16.73382     10.10103        -0.039644      0.031790     -0.000174
      7.06895     21.17658     10.10113         0.020719     -0.021160      0.000307
      8.72538     18.30551     10.10101        -0.007528      0.041423     -0.000250
     10.37935     21.17475     10.10017        -0.010471     -0.003416     -0.000813
     11.44845     16.73405     10.09980         0.023379      0.022145     -0.000979
     13.10231     19.60228     10.10143        -0.000745     -0.001445      0.001329
     14.75630     16.73418     10.09980        -0.021030      0.016767     -0.000931
     -1.68765      6.00884     10.10103         0.032948     -0.010515      0.000076
     14.77344      7.22358     14.22185         0.083995     -0.018877     -0.105937
     12.13129      9.51776     14.36432        -0.035171      0.083345     -0.100280
     11.46961      6.06764     14.45045        -0.060516     -0.063589     -0.101200
     12.95739      7.63178     17.24360         0.015245      0.005444      0.025295
      8.72560      7.58049     10.12867         0.023961     -0.000371      0.011040
     24.04507      3.78947     10.10223         0.000668     -0.002995      0.000794
     19.66621      3.79037     10.10694         0.001453      0.000162      0.003276
     17.47997      7.58054     10.12732        -0.027690     -0.000389      0.008593
      2.15862     11.37212     10.10227        -0.000048     -0.000866      0.001011
     -2.22142     11.37211     10.10221         0.000011      0.000907      0.000752
     -4.40945     15.16307     10.10218        -0.000946     -0.000271      0.000914
     10.91391     11.37190     10.13464         0.014297     -0.024198      0.010911
      6.53763     11.37085     10.10816         0.000619      0.000306      0.004416
      4.34773     15.16296     10.10235        -0.002545     -0.001059      0.000920
     19.66628     11.37106     10.10668         0.001131     -0.001220      0.003206
     15.29054     11.37226     10.12369        -0.012453     -0.021592      0.009294
     13.10230     15.16099     10.10782        -0.001004      0.000488      0.003852
     -2.21991     18.95678     10.10232         0.000533     -0.000925      0.000869
     -6.59806     18.95568     10.10255         0.000224      0.000551      0.000920
     -8.78554     22.74791     10.10243        -0.001940      0.001141      0.000931
      6.53536     18.95551     10.10256        -0.000070     -0.002017      0.000896
      2.15719     18.95674     10.10220        -0.000809      0.000347      0.000891
     13.10213      0.00042     10.10711        -0.002411     -0.000333      0.003703
     15.29049     18.95454     10.10226        -0.000426     -0.001344      0.001001
     10.91325     18.95447     10.10237         0.001819     -0.000259      0.000931
      8.72400     22.74779     10.10218        -0.000237      0.001056      0.000902
      6.53729      3.79058     10.10832         0.000877     -0.001954      0.004139
      2.15837      3.78942     10.10235         0.000461     -0.000432      0.001028
     -0.03090      7.58057     10.10252        -0.001430      0.000386      0.000880
     15.29078      3.78986     10.12379        -0.010385      0.020538      0.009365
     10.91328      3.79012     10.13157         0.011274      0.021998      0.010562
 -----------------------------------------------------------------------------------
    total drift:                               -0.167445     -0.019108      0.006143


--------------------------------------------------------------------------------------------------------



  FREE ENERGIE OF THE ION-ELECTRON SYSTEM (eV)
  ---------------------------------------------------
  free  energy   TOTEN  =      -837.34038037 eV

  energy  without entropy=     -837.23564407  energy(sigma->0) =     -837.28801222
 
 d Force = 0.1245171E-02[ 0.122E-02, 0.127E-02]  d Energy = 0.1234344E-02 0.108E-04
 d Force =-0.5565384E+01[-0.557E+01,-0.556E+01]  d Ewald  =-0.5565384E+01 0.252E-07


--------------------------------------------------------------------------------------------------------


    POTLOK:  cpu time    1.6500: real time    1.6506


--------------------------------------------------------------------------------------------------------


 Conjugate gradient step on ions:
 trial-energy change:   -0.001234  1 .order   -0.001245   -0.001268   -0.001223
  (g-gl).g = 0.120E-01      g.g   = 0.118E-01  gl.gl    = 0.557E-02
 g(Force)  = 0.118E-01   g(Stress)= 0.000E+00 ortho     = 0.355E-04
 gamma     =   2.15115
 trial     =   0.10672
 opt step  =   0.42686  (harmonic =   2.98510) maximal distance =0.00318448
 next E    =  -837.356878   (d E  =  -0.01773)


--------------------------------------------------------------------------------------------------------


    WAVPRE:  cpu time    0.5277: real time    0.5509
    FEWALD:  cpu time    0.0047: real time    0.0047
    ORTHCH:  cpu time  120.5427: real time  120.5663
     LOOP+:  cpu time 6774.4039: real time 6776.9404


--------------------------------------- Iteration     13(   1)  ---------------------------------------


    POTLOK:  cpu time    1.6027: real time    1.6040
    SETDIJ:  cpu time    0.0461: real time    0.0461
     EDDAV:  cpu time  848.9808: real time  849.3194
       DOS:  cpu time    0.0147: real time    0.0147
    CHARGE:  cpu time   13.1314: real time   13.1355
    MIXING:  cpu time    0.0285: real time    0.0285
    --------------------------------------------
      LOOP:  cpu time  863.8042: real time  864.1482

 eigenvalue-minimisations  : 12532
 total energy-change (2. order) : 0.6828999E-03  (-0.6289466E-01)
 number of electron     868.0000459 magnetization       0.0338504
 augmentation part      146.7494084 magnetization      -0.0054210

 Broyden mixing:
  rms(total) = 0.43994E-01    rms(broyden)= 0.43992E-01
  rms(prec ) = 0.44309E-01
  weight for this iteration     100.00

 Free energy of the ion-electron system (eV)
  ---------------------------------------------------
  alpha Z        PSCENC =       315.09161757
  Ewald energy   TEWEN  =    106355.17264145
  -Hartree energ DENC   =   -161162.44282382
  -exchange      EXHF   =         0.00000000
  -V(xc)+E(xc)   XCENC  =      2669.61973647
  PAW double counting   =     98705.30090926  -101461.81076644
  entropy T*S    EENTRO =        -0.10515196
  eigenvalues    EBANDS =     -8392.28454693
  atomic energy  EATOM  =     62143.14740716
  Solvation  Ediel_sol  =         0.00000000
  ---------------------------------------------------
  free energy    TOTEN  =      -828.31097725 eV

  energy without entropy =     -828.20582529  energy(sigma->0) =     -828.25840127


--------------------------------------------------------------------------------------------------------




--------------------------------------- Iteration     13(   2)  ---------------------------------------


    POTLOK:  cpu time    1.6088: real time    1.6107
    SETDIJ:  cpu time    0.0458: real time    0.0458
    EDDIAG:  cpu time   67.7687: real time   67.7918
  RMM-DIIS:  cpu time  622.5399: real time  622.7762
    ORTHCH:  cpu time   20.1448: real time   20.1508
       DOS:  cpu time    0.0150: real time    0.0150
    CHARGE:  cpu time   12.9936: real time   12.9978
    MIXING:  cpu time    0.0355: real time    0.0355
    --------------------------------------------
      LOOP:  cpu time  725.1521: real time  725.4236

 eigenvalue-minimisations  : 13886
 total energy-change (2. order) :-0.2752536E-02  (-0.3139157E-02)
 number of electron     868.0000459 magnetization       0.0334595
 augmentation part      146.7490447 magnetization       0.0027634

 Broyden mixing:
  rms(total) = 0.15959E-01    rms(broyden)= 0.15957E-01
  rms(prec ) = 0.17246E-01
  weight for this iteration     100.00

 eigenvalues of (default mixing * dielectric matrix)
  average eigenvalue GAMMA=   0.7633
  0.7633

 Free energy of the ion-electron system (eV)
  ---------------------------------------------------
  alpha Z        PSCENC =       315.09161757
  Ewald energy   TEWEN  =    106355.17264145
  -Hartree energ DENC   =   -161162.39311130
  -exchange      EXHF   =         0.00000000
  -V(xc)+E(xc)   XCENC  =      2669.61178674
  PAW double counting   =     98702.88832436  -101459.36568869
  entropy T*S    EENTRO =        -0.10261683
  eigenvalues    EBANDS =     -8392.36409024
  atomic energy  EATOM  =     62143.14740716
  Solvation  Ediel_sol  =         0.00000000
  ---------------------------------------------------
  free energy    TOTEN  =      -828.31372979 eV

  energy without entropy =     -828.21111296  energy(sigma->0) =     -828.26242137


--------------------------------------------------------------------------------------------------------




--------------------------------------- Iteration     13(   3)  ---------------------------------------


    POTLOK:  cpu time    1.6119: real time    1.6125
    SETDIJ:  cpu time    0.0461: real time    0.0461
    EDDIAG:  cpu time   67.8317: real time   67.8563
  RMM-DIIS:  cpu time  686.4882: real time  686.7595
    ORTHCH:  cpu time   20.1380: real time   20.1443
       DOS:  cpu time    0.0150: real time    0.0150
    CHARGE:  cpu time   13.0309: real time   13.0350
    MIXING:  cpu time    0.0327: real time    0.0328
    --------------------------------------------
      LOOP:  cpu time  789.1944: real time  789.5014

 eigenvalue-minimisations  : 15317
 total energy-change (2. order) :-0.6082307E-03  (-0.2607595E-03)
 number of electron     868.0000459 magnetization       0.0339566
 augmentation part      146.7680250 magnetization      -0.0268958

 Broyden mixing:
  rms(total) = 0.23949E-01    rms(broyden)= 0.23948E-01
  rms(prec ) = 0.31749E-01
  weight for this iteration     100.00

 eigenvalues of (default mixing * dielectric matrix)
  average eigenvalue GAMMA=   0.4594
  0.7288  0.1899

 Free energy of the ion-electron system (eV)
  ---------------------------------------------------
  alpha Z        PSCENC =       315.09161757
  Ewald energy   TEWEN  =    106355.17264145
  -Hartree energ DENC   =   -161162.03395108
  -exchange      EXHF   =         0.00000000
  -V(xc)+E(xc)   XCENC  =      2669.61740808
  PAW double counting   =     98701.25968292  -101457.74741536
  entropy T*S    EENTRO =        -0.11043466
  eigenvalues    EBANDS =     -8392.71129410
  atomic energy  EATOM  =     62143.14740716
  Solvation  Ediel_sol  =         0.00000000
  ---------------------------------------------------
  free energy    TOTEN  =      -828.31433802 eV

  energy without entropy =     -828.20390336  energy(sigma->0) =     -828.25912069


--------------------------------------------------------------------------------------------------------




--------------------------------------- Iteration     13(   4)  ---------------------------------------


    POTLOK:  cpu time    1.6096: real time    1.6113
    SETDIJ:  cpu time    0.0461: real time    0.0461
    EDDIAG:  cpu time   67.7919: real time   67.8146
  RMM-DIIS:  cpu time  571.4029: real time  571.6219
    ORTHCH:  cpu time   20.1480: real time   20.1547
       DOS:  cpu time    0.0142: real time    0.0142
    CHARGE:  cpu time   13.0017: real time   13.0062
    MIXING:  cpu time    0.0374: real time    0.0375
    --------------------------------------------
      LOOP:  cpu time  674.0518: real time  674.3064

 eigenvalue-minimisations  : 12737
 total energy-change (2. order) : 0.5537723E-03  (-0.4336728E-04)
 number of electron     868.0000459 magnetization       0.0341015
 augmentation part      146.7458773 magnetization      -0.0009482

 Broyden mixing:
  rms(total) = 0.13250E-01    rms(broyden)= 0.13248E-01
  rms(prec ) = 0.13735E-01
  weight for this iteration     100.00

 eigenvalues of (default mixing * dielectric matrix)
  average eigenvalue GAMMA=   0.6579
  0.9064  0.9064  0.1609

 Free energy of the ion-electron system (eV)
  ---------------------------------------------------
  alpha Z        PSCENC =       315.09161757
  Ewald energy   TEWEN  =    106355.17264145
  -Hartree energ DENC   =   -161162.48005159
  -exchange      EXHF   =         0.00000000
  -V(xc)+E(xc)   XCENC  =      2669.61755554
  PAW double counting   =     98701.31729344  -101457.84033566
  entropy T*S    EENTRO =        -0.10366306
  eigenvalues    EBANDS =     -8392.23624909
  atomic energy  EATOM  =     62143.14740716
  Solvation  Ediel_sol  =         0.00000000
  ---------------------------------------------------
  free energy    TOTEN  =      -828.31378425 eV

  energy without entropy =     -828.21012119  energy(sigma->0) =     -828.26195272


--------------------------------------------------------------------------------------------------------




--------------------------------------- Iteration     13(   5)  ---------------------------------------


    POTLOK:  cpu time    1.6096: real time    1.6108
    SETDIJ:  cpu time    0.0456: real time    0.0456
    EDDIAG:  cpu time   67.8728: real time   67.8967
  RMM-DIIS:  cpu time  574.0559: real time  574.2826
    ORTHCH:  cpu time   20.1124: real time   20.1190
       DOS:  cpu time    0.0149: real time    0.0149
    CHARGE:  cpu time   12.9970: real time   13.0015
    MIXING:  cpu time    0.0364: real time    0.0365
    --------------------------------------------
      LOOP:  cpu time  676.7447: real time  677.0076

 eigenvalue-minimisations  : 12790
 total energy-change (2. order) : 0.7965734E-04  (-0.1711853E-04)
 number of electron     868.0000459 magnetization       0.0343169
 augmentation part      146.7550329 magnetization      -0.0034755

 Broyden mixing:
  rms(total) = 0.95797E-02    rms(broyden)= 0.95792E-02
  rms(prec ) = 0.98775E-02
  weight for this iteration     100.00

 eigenvalues of (default mixing * dielectric matrix)
  average eigenvalue GAMMA=   0.7745
  1.2355  1.2355  0.4676  0.1593

 Free energy of the ion-electron system (eV)
  ---------------------------------------------------
  alpha Z        PSCENC =       315.09161757
  Ewald energy   TEWEN  =    106355.17264145
  -Hartree energ DENC   =   -161162.31840565
  -exchange      EXHF   =         0.00000000
  -V(xc)+E(xc)   XCENC  =      2669.61162914
  PAW double counting   =     98699.63109769  -101456.10467198
  entropy T*S    EENTRO =        -0.10439016
  eigenvalues    EBANDS =     -8392.44062980
  atomic energy  EATOM  =     62143.14740716
  Solvation  Ediel_sol  =         0.00000000
  ---------------------------------------------------
  free energy    TOTEN  =      -828.31370459 eV

  energy without entropy =     -828.20931443  energy(sigma->0) =     -828.26150951


--------------------------------------------------------------------------------------------------------




--------------------------------------- Iteration     13(   6)  ---------------------------------------


    POTLOK:  cpu time    1.6097: real time    1.6103
    SETDIJ:  cpu time    0.0459: real time    0.0459
    EDDIAG:  cpu time   67.7841: real time   67.8137
  RMM-DIIS:  cpu time  571.2846: real time  571.5057
    ORTHCH:  cpu time   20.0914: real time   20.0983
       DOS:  cpu time    0.0149: real time    0.0150
    CHARGE:  cpu time   13.0100: real time   13.0141
    MIXING:  cpu time    0.0462: real time    0.0462
    --------------------------------------------
      LOOP:  cpu time  673.8869: real time  674.1492

 eigenvalue-minimisations  : 12728
 total energy-change (2. order) :-0.6037619E-05  (-0.2614591E-04)
 number of electron     868.0000459 magnetization       0.0347140
 augmentation part      146.7515612 magnetization      -0.0066388

 Broyden mixing:
  rms(total) = 0.72415E-02    rms(broyden)= 0.72392E-02
  rms(prec ) = 0.82782E-02
  weight for this iteration     100.00

 eigenvalues of (default mixing * dielectric matrix)
  average eigenvalue GAMMA=   0.7989
  1.4827  1.4827  0.6194  0.1598  0.2500

 Free energy of the ion-electron system (eV)
  ---------------------------------------------------
  alpha Z        PSCENC =       315.09161757
  Ewald energy   TEWEN  =    106355.17264145
  -Hartree energ DENC   =   -161162.40171706
  -exchange      EXHF   =         0.00000000
  -V(xc)+E(xc)   XCENC  =      2669.61625787
  PAW double counting   =     98698.35310342  -101454.86571998
  entropy T*S    EENTRO =        -0.10526939
  eigenvalues    EBANDS =     -8392.32203165
  atomic energy  EATOM  =     62143.14740716
  Solvation  Ediel_sol  =         0.00000000
  ---------------------------------------------------
  free energy    TOTEN  =      -828.31371063 eV

  energy without entropy =     -828.20844123  energy(sigma->0) =     -828.26107593


--------------------------------------------------------------------------------------------------------




--------------------------------------- Iteration     13(   7)  ---------------------------------------


    POTLOK:  cpu time    1.6129: real time    1.6136
    SETDIJ:  cpu time    0.0458: real time    0.0458
    EDDIAG:  cpu time   67.8788: real time   67.9185
  RMM-DIIS:  cpu time  580.6710: real time  580.8888
    ORTHCH:  cpu time   20.1563: real time   20.1619
       DOS:  cpu time    0.0150: real time    0.0150
    CHARGE:  cpu time   13.0152: real time   13.0192
    MIXING:  cpu time    0.0401: real time    0.0402
    --------------------------------------------
      LOOP:  cpu time  683.4350: real time  683.7030

 eigenvalue-minimisations  : 12934
 total energy-change (2. order) : 0.2511330E-04  (-0.1379336E-04)
 number of electron     868.0000459 magnetization       0.0349242
 augmentation part      146.7474497 magnetization      -0.0057667

 Broyden mixing:
  rms(total) = 0.33612E-02    rms(broyden)= 0.33586E-02
  rms(prec ) = 0.38772E-02
  weight for this iteration     100.00

 eigenvalues of (default mixing * dielectric matrix)
  average eigenvalue GAMMA=   0.7623
  1.7465  1.3747  0.5315  0.5315  0.1590  0.2307

 Free energy of the ion-electron system (eV)
  ---------------------------------------------------
  alpha Z        PSCENC =       315.09161757
  Ewald energy   TEWEN  =    106355.17264145
  -Hartree energ DENC   =   -161162.56925073
  -exchange      EXHF   =         0.00000000
  -V(xc)+E(xc)   XCENC  =      2669.61834309
  PAW double counting   =     98697.30531480  -101453.84609178
  entropy T*S    EENTRO =        -0.10471368
  eigenvalues    EBANDS =     -8392.12895339
  atomic energy  EATOM  =     62143.14740716
  Solvation  Ediel_sol  =         0.00000000
  ---------------------------------------------------
  free energy    TOTEN  =      -828.31368551 eV

  energy without entropy =     -828.20897183  energy(sigma->0) =     -828.26132867


--------------------------------------------------------------------------------------------------------




--------------------------------------- Iteration     13(   8)  ---------------------------------------


    POTLOK:  cpu time    1.5886: real time    1.5891
    SETDIJ:  cpu time    0.0457: real time    0.0457
    EDDIAG:  cpu time   67.9425: real time   67.9661
