<?xml version="1.0" encoding="ISO-8859-1"?>
<modeling>
 <generator>
  <i name="program" type="string">vasp </i>
  <i name="version" type="string">5.4.4.18Apr17-6-g9f103f2a35  </i>
  <i name="subversion" type="string">(build Apr 28 2017 10:40:22) complex            parallel </i>
  <i name="platform" type="string">Intel-16.0.3.210-OMPI-1.10.2 </i>
  <i name="date" type="string">2019 11 15 </i>
  <i name="time" type="string">15:42:12 </i>
 </generator>
 <incar>
  <i type="string" name="SYSTEM"> membrane</i>
  <i type="int" name="ISTART">     0</i>
  <i type="string" name="PREC">normal</i>
  <i type="string" name="ALGO"> Fast</i>
  <i type="int" name="ISPIN">     2</i>
  <i type="int" name="ICHARG">     2</i>
  <i type="int" name="IBRION">     2</i>
  <i name="EDIFF">      0.00000100</i>
  <i name="EDIFFG">     -0.01000000</i>
  <i type="int" name="NSW">  1000</i>
  <i name="ENCUT">    500.00000000</i>
  <i type="logical" name="LPLANE"> T  </i>
  <i type="int" name="ISMEAR">     0</i>
  <i name="SIGMA">      0.05000000</i>
  <i type="logical" name="LWAVE"> F  </i>
  <i type="logical" name="LCHARG"> F  </i>
  <v type="int" name="KPOINT_BSE">    -1     0     0     0</v>
 </incar>
 <structure name="primitive_cell" >
  <crystal>
   <varray name="basis" >
    <v>      26.26650047       0.00000000       0.00000000 </v>
    <v>     -13.13288029      22.74974710       0.00000000 </v>
    <v>       0.00000000       0.00000000      20.20179939 </v>
   </varray>
   <i name="volume">  12071.71134534 </i>
   <varray name="rec_basis" >
    <v>       0.03807131       0.02197765       0.00000000 </v>
    <v>       0.00000000       0.04395653       0.00000000 </v>
    <v>       0.00000000       0.00000000       0.04950054 </v>
   </varray>
  </crystal>
  <varray name="positions" >
   <v>       0.02980496       0.30218825      -0.49998810 </v>
   <v>       0.06083963       0.36425758      -0.49998816 </v>
   <v>      -0.03235138       0.27101999       0.49999162 </v>
   <v>       0.06782153       0.26408928       0.49999493 </v>
   <v>       0.02987545       0.39543758       0.49999310 </v>
   <v>      -0.06346952       0.30213892       0.49996078 </v>
   <v>       0.13696564       0.40233265       0.49999475 </v>
   <v>      -0.07041284       0.19497931       0.49996527 </v>
   <v>      -0.03236963       0.36433313       0.49996245 </v>
   <v>       0.16540187       0.33321923      -0.49995955 </v>
   <v>      -0.00128108       0.16652881      -0.49995719 </v>
   <v>       0.06783958       0.47146255       0.49996517 </v>
   <v>      -0.13957821       0.26417549       0.49991049 </v>
   <v>      -0.07051663       0.40226954       0.49991359 </v>
   <v>       0.16541858       0.49990300      -0.49995786 </v>
   <v>      -0.16795861       0.16664596      -0.49978494 </v>
   <v>       0.06789781       0.13814886       0.49997588 </v>
   <v>       0.19393215       0.26414799       0.49999625 </v>
   <v>      -0.07036275       0.06900067       0.49999791 </v>
   <v>       0.26303046       0.40230254       0.49999690 </v>
   <v>      -0.00140454       0.49978963      -0.49979662 </v>
   <v>      -0.16820295       0.33319993      -0.49879044 </v>
   <v>      -0.19629804       0.06906489       0.49996637 </v>
   <v>       0.26295357      -0.47170759       0.49997620 </v>
   <v>       0.16543477       0.16659357      -0.49995336 </v>
   <v>       0.02984702       0.06202942       0.49999706 </v>
   <v>       0.27005327       0.30220454      -0.49998575 </v>
   <v>      -0.03228447       0.03095765       0.49999972 </v>
   <v>       0.30109356       0.36426676      -0.49998628 </v>
   <v>       0.19384036      -0.40254949       0.49999858 </v>
   <v>      -0.26548298       0.13823297       0.49990914 </v>
   <v>       0.33204764       0.49984044      -0.49995557 </v>
   <v>      -0.16794123      -0.00012037      -0.49995858 </v>
   <v>       0.06782482      -0.40264520       0.49996786 </v>
   <v>      -0.26555684       0.26418171      -0.49990774 </v>
   <v>      -0.27234498       0.03100362       0.49999230 </v>
   <v>       0.30104625      -0.39556471       0.49999687 </v>
   <v>       0.30100426       0.27100923       0.49998900 </v>
   <v>       0.06091442       0.03095775       0.49999875 </v>
   <v>      -0.07052609      -0.47178480       0.49990876 </v>
   <v>      -0.19647803       0.40227414      -0.49991053 </v>
   <v>      -0.30344324       0.06213981       0.49995947 </v>
   <v>       0.26997658      -0.36449094       0.49999956 </v>
   <v>      -0.06336074      -0.03115858       0.49999695 </v>
   <v>       0.36323896       0.39544566       0.49999161 </v>
   <v>       0.13704584       0.06902603       0.49999856 </v>
   <v>       0.26301865       0.19497667       0.49996142 </v>
   <v>       0.16539700      -0.33344579      -0.49995893 </v>
   <v>      -0.33458461       0.16678633      -0.49903408 </v>
   <v>      -0.13948615      -0.06921362       0.49997659 </v>
   <v>       0.40127225       0.47146276       0.49996285 </v>
   <v>      -0.30345199       0.30210167      -0.49934266 </v>
   <v>       0.02986284      -0.36455396       0.49999470 </v>
   <v>      -0.30351934      -0.03113210      -0.49998839 </v>
   <v>       0.36317889      -0.36450610       0.49999863 </v>
   <v>       0.02983389      -0.03116850       0.49999616 </v>
   <v>       0.36326080       0.30211553       0.49995164 </v>
   <v>      -0.27231371       0.36434007      -0.49934432 </v>
   <v>      -0.03238025      -0.39568930       0.49995976 </v>
   <v>      -0.03230360      -0.06224491       0.49999892 </v>
   <v>       0.39437600       0.36433365       0.49995419 </v>
   <v>       0.40120046      -0.40259653       0.49999987 </v>
   <v>      -0.26548349      -0.06921670       0.49999652 </v>
   <v>      -0.16817615       0.49966778      -0.49902299 </v>
   <v>      -0.36565755       0.03103105       0.49996058 </v>
   <v>       0.30105514      -0.30237333       0.49999701 </v>
   <v>      -0.27855567       0.31736043      -0.29529386 </v>
   <v>      -0.40364430       0.06914946       0.49991572 </v>
   <v>       0.26295959      -0.26432493       0.49997784 </v>
   <v>       0.06084327      -0.30241521      -0.49998831 </v>
   <v>      -0.36569544       0.27097832      -0.49937610 </v>
   <v>      -0.36561010      -0.06217520      -0.49998895 </v>
   <v>       0.39425482      -0.30237379       0.49999650 </v>
   <v>       0.16541239      -0.00011766      -0.49995063 </v>
   <v>       0.33218440       0.16658317      -0.49973086 </v>
   <v>      -0.30340812       0.39550258      -0.49934476 </v>
   <v>      -0.06347629      -0.36456854       0.49995677 </v>
   <v>       0.36318737      -0.27130809       0.49999912 </v>
   <v>      -0.39676917      -0.03119329       0.49999214 </v>
   <v>      -0.40359411       0.19519768      -0.49987535 </v>
   <v>       0.13696062      -0.26436073       0.49999569 </v>
   <v>       0.06788396      -0.06927834       0.49997486 </v>
   <v>       0.40135176       0.26412065       0.49990235 </v>
   <v>      -0.07037065      -0.13835598       0.49999921 </v>
   <v>       0.47046916       0.40229789       0.49990465 </v>
   <v>       0.26301337       0.06905636       0.49995515 </v>
   <v>      -0.26553909       0.47127919      -0.49983430 </v>
   <v>      -0.13957541      -0.40268210       0.49991312 </v>
   <v>      -0.16791557      -0.16676121      -0.49995316 </v>
   <v>       0.49882940       0.49984926      -0.49975045 </v>
   <v>       0.49874271      -0.33345102      -0.49995328 </v>
   <v>       0.02981114      -0.27136743      -0.49998847 </v>
   <v>      -0.33461818      -0.16681333      -0.49995881 </v>
   <v>      -0.39682454       0.30208670      -0.49937295 </v>
   <v>      -0.03233600      -0.30234440       0.49998838 </v>
   <v>      -0.36568778       0.36435525      -0.49936145 </v>
   <v>      -0.47280538      -0.40259441       0.49995848 </v>
   <v>      -0.26547188      -0.19528637       0.49999579 </v>
   <v>      -0.34392473       0.33465825      -0.25135401 </v>
   <v>      -0.40367722      -0.13827651       0.49999634 </v>
   <v>       0.47037223      -0.26430788       0.49997596 </v>
   <v>      -0.47280682      -0.06915954       0.49996325 </v>
   <v>       0.40122266      -0.19519001       0.49999815 </v>
   <v>      -0.00128258      -0.16682109      -0.49995545 </v>
   <v>       0.49898298       0.33319727      -0.49883874 </v>
   <v>      -0.32890640       0.41884954      -0.28820299 </v>
   <v>       0.49878459       0.00000047      -0.49978475 </v>
   <v>       0.33204970      -0.16680461      -0.49995464 </v>
   <v>       0.30101723       0.03100302       0.49998954 </v>
   <v>      -0.43018567       0.26648659      -0.28356627 </v>
   <v>      -0.33927025       0.33525937      -0.14362684 </v>
   <v>       0.19393062      -0.06915019       0.49999506 </v>
   <v>       0.40135989       0.13823431       0.49989459 </v>
   <v>       0.49899293       0.16686558      -0.49863454 </v>
   <v>       0.16542330      -0.16675007      -0.49995851 </v>
   <v>      -0.47257584       0.26425423      -0.49981157 </v>
   <v>       0.06783400      -0.19527316       0.49999800 </v>
   <v>       0.47045991       0.06918534       0.49989570 </v>
   <v>       0.26302150      -0.13826185       0.49999491 </v>
   <v>      -0.40359432       0.40223042      -0.49987933 </v>
   <v>      -0.07041262      -0.26438222       0.49995978 </v>
   <v>      -0.33461566       0.49957043      -0.49847999 </v>
   <v>      -0.16800720      -0.33358349      -0.49975436 </v>
   <v>      -0.40364650      -0.47180212       0.49989600 </v>
   <v>      -0.19630457      -0.26436839       0.49995936 </v>
   <v>      -0.39678017      -0.36454370       0.49999105 </v>
   <v>       0.36326635       0.06214889       0.49995729 </v>
   <v>       0.27003772      -0.03112454      -0.49998615 </v>
   <v>      -0.30351606      -0.27138607      -0.49998610 </v>
   <v>       0.49876963      -0.16674525      -0.49995732 </v>
   <v>      -0.26551795      -0.40276418       0.49989609 </v>
   <v>      -0.40366686      -0.26440268       0.49999586 </v>
   <v>      -0.36568026      -0.39568781       0.49995903 </v>
   <v>      -0.27233031      -0.30233549       0.49999213 </v>
   <v>      -0.36559427      -0.30241655      -0.49998658 </v>
   <v>       0.40124387      -0.06920860       0.49996233 </v>
   <v>       0.39437732       0.03103252       0.49996159 </v>
   <v>       0.30108383      -0.06216839      -0.49998664 </v>
   <v>      -0.30344321      -0.36458641       0.49995997 </v>
   <v>       0.36322143      -0.03119751       0.49999586 </v>
  </varray>
 </structure>
 <varray name="primitive_index" >
  <v type="int" >        1 </v>
  <v type="int" >       22 </v>
  <v type="int" >       17 </v>
  <v type="int" >      109 </v>
  <v type="int" >       20 </v>
  <v type="int" >       15 </v>
  <v type="int" >       76 </v>
  <v type="int" >       71 </v>
  <v type="int" >       36 </v>
  <v type="int" >      138 </v>
  <v type="int" >      115 </v>
  <v type="int" >       74 </v>
  <v type="int" >       69 </v>
  <v type="int" >       90 </v>
  <v type="int" >      119 </v>
  <v type="int" >      116 </v>
  <v type="int" >       56 </v>
  <v type="int" >       57 </v>
  <v type="int" >       72 </v>
  <v type="int" >       78 </v>
  <v type="int" >      124 </v>
  <v type="int" >      117 </v>
  <v type="int" >       70 </v>
  <v type="int" >       77 </v>
  <v type="int" >      137 </v>
  <v type="int" >        2 </v>
  <v type="int" >        3 </v>
  <v type="int" >       18 </v>
  <v type="int" >       24 </v>
  <v type="int" >       75 </v>
  <v type="int" >       68 </v>
  <v type="int" >      118 </v>
  <v type="int" >      135 </v>
  <v type="int" >       73 </v>
  <v type="int" >       67 </v>
  <v type="int" >       16 </v>
  <v type="int" >       23 </v>
  <v type="int" >        5 </v>
  <v type="int" >        4 </v>
  <v type="int" >       89 </v>
  <v type="int" >       88 </v>
  <v type="int" >       14 </v>
  <v type="int" >       21 </v>
  <v type="int" >       51 </v>
  <v type="int" >       26 </v>
  <v type="int" >       58 </v>
  <v type="int" >       59 </v>
  <v type="int" >      120 </v>
  <v type="int" >      139 </v>
  <v type="int" >      105 </v>
  <v type="int" >       80 </v>
  <v type="int" >       13 </v>
  <v type="int" >       19 </v>
  <v type="int" >       49 </v>
  <v type="int" >       25 </v>
  <v type="int" >       37 </v>
  <v type="int" >        7 </v>
  <v type="int" >       34 </v>
  <v type="int" >       35 </v>
  <v type="int" >       53 </v>
  <v type="int" >       28 </v>
  <v type="int" >       79 </v>
  <v type="int" >      103 </v>
  <v type="int" >      125 </v>
  <v type="int" >       12 </v>
  <v type="int" >       42 </v>
  <v type="int" >      110 </v>
  <v type="int" >       66 </v>
  <v type="int" >       96 </v>
  <v type="int" >       40 </v>
  <v type="int" >       11 </v>
  <v type="int" >       47 </v>
  <v type="int" >       46 </v>
  <v type="int" >      129 </v>
  <v type="int" >      136 </v>
  <v type="int" >       32 </v>
  <v type="int" >       33 </v>
  <v type="int" >       44 </v>
  <v type="int" >       45 </v>
  <v type="int" >       65 </v>
  <v type="int" >       94 </v>
  <v type="int" >       91 </v>
  <v type="int" >       61 </v>
  <v type="int" >      107 </v>
  <v type="int" >       82 </v>
  <v type="int" >       60 </v>
  <v type="int" >       86 </v>
  <v type="int" >       87 </v>
  <v type="int" >      134 </v>
  <v type="int" >      122 </v>
  <v type="int" >      123 </v>
  <v type="int" >       38 </v>
  <v type="int" >      130 </v>
  <v type="int" >        9 </v>
  <v type="int" >       54 </v>
  <v type="int" >       30 </v>
  <v type="int" >       81 </v>
  <v type="int" >      104 </v>
  <v type="int" >       55 </v>
  <v type="int" >      101 </v>
  <v type="int" >      100 </v>
  <v type="int" >       99 </v>
  <v type="int" >       98 </v>
  <v type="int" >      133 </v>
  <v type="int" >      114 </v>
  <v type="int" >      111 </v>
  <v type="int" >      132 </v>
  <v type="int" >      127 </v>
  <v type="int" >        6 </v>
  <v type="int" >      112 </v>
  <v type="int" >      113 </v>
  <v type="int" >       93 </v>
  <v type="int" >       62 </v>
  <v type="int" >      140 </v>
  <v type="int" >      128 </v>
  <v type="int" >       63 </v>
  <v type="int" >       92 </v>
  <v type="int" >       64 </v>
  <v type="int" >       95 </v>
  <v type="int" >       84 </v>
  <v type="int" >      108 </v>
  <v type="int" >      121 </v>
  <v type="int" >      126 </v>
  <v type="int" >       83 </v>
  <v type="int" >      106 </v>
  <v type="int" >       27 </v>
  <v type="int" >        8 </v>
  <v type="int" >       39 </v>
  <v type="int" >       50 </v>
  <v type="int" >      131 </v>
  <v type="int" >       85 </v>
  <v type="int" >      102 </v>
  <v type="int" >       29 </v>
  <v type="int" >       52 </v>
  <v type="int" >       48 </v>
  <v type="int" >       97 </v>
  <v type="int" >       10 </v>
  <v type="int" >       41 </v>
  <v type="int" >       31 </v>
  <v type="int" >       43 </v>
 </varray>
 <kpoints>
  <generation param="Gamma">
   <v type="int" name="divisions">       3        3        1 </v>
   <v name="usershift">      0.00000000       0.00000000       0.00000000 </v>
   <v name="genvec1">      0.33333333       0.00000000       0.00000000 </v>
   <v name="genvec2">      0.00000000       0.33333333       0.00000000 </v>
   <v name="genvec3">      0.00000000       0.00000000       1.00000000 </v>
   <v name="shift">      0.00000000       0.00000000       0.00000000 </v>
  </generation>
  <varray name="kpointlist" >
   <v>       0.00000000       0.00000000       0.00000000 </v>
   <v>       0.33333333       0.00000000       0.00000000 </v>
   <v>       0.00000000       0.33333333       0.00000000 </v>
   <v>       0.33333333       0.33333333       0.00000000 </v>
   <v>      -0.33333333       0.33333333       0.00000000 </v>
  </varray>
  <varray name="weights" >
   <v>       0.11111111 </v>
   <v>       0.22222222 </v>
   <v>       0.22222222 </v>
   <v>       0.22222222 </v>
   <v>       0.22222222 </v>
  </varray>
 </kpoints>
 <parameters>
  <separator name="general" >
   <i type="string" name="SYSTEM">membrane</i>
   <i type="logical" name="LCOMPAT"> F  </i>
  </separator>
  <separator name="electronic" >
   <i type="string" name="PREC">normal</i>
   <i name="ENMAX">    500.00000000</i>
   <i name="ENAUG">    644.87300000</i>
   <i name="EDIFF">      0.00000100</i>
   <i type="int" name="IALGO">    68</i>
   <i type="int" name="IWAVPR">    11</i>
   <i type="int" name="NBANDS">   590</i>
   <i name="NELECT">    868.00000000</i>
   <i type="int" name="TURBO">     0</i>
   <i type="int" name="IRESTART">     0</i>
   <i type="int" name="NREBOOT">     0</i>
   <i type="int" name="NMIN">     0</i>
   <i name="EREF">      0.00000000</i>
   <separator name="electronic smearing" >
    <i type="int" name="ISMEAR">     0</i>
    <i name="SIGMA">      0.05000000</i>
    <i name="KSPACING">      0.50000000</i>
    <i type="logical" name="KGAMMA"> T  </i>
   </separator>
   <separator name="electronic projectors" >
    <i type="logical" name="LREAL"> F  </i>
    <v name="ROPT">      0.00000000      0.00000000      0.00000000      0.00000000      0.00000000</v>
    <i type="int" name="LMAXPAW">  -100</i>
    <i type="int" name="LMAXMIX">     2</i>
    <i type="logical" name="NLSPLINE"> F  </i>
   </separator>
   <separator name="electronic startup" >
    <i type="int" name="ISTART">     0</i>
    <i type="int" name="ICHARG">     2</i>
    <i type="int" name="INIWAV">     1</i>
   </separator>
   <separator name="electronic spin" >
    <i type="int" name="ISPIN">     2</i>
    <i type="logical" name="LNONCOLLINEAR"> F  </i>
    <v name="MAGMOM">      1.00000000      1.00000000      1.00000000      1.00000000      1.00000000      1.00000000      1.00000000      1.00000000      1.00000000      1.00000000      1.00000000      1.00000000      1.00000000      1.00000000      1.00000000      1.00000000      1.00000000      1.00000000      1.00000000      1.00000000
      1.00000000      1.00000000      1.00000000      1.00000000      1.00000000      1.00000000      1.00000000      1.00000000      1.00000000      1.00000000      1.00000000      1.00000000      1.00000000      1.00000000      1.00000000      1.00000000      1.00000000      1.00000000      1.00000000      1.00000000
      1.00000000      1.00000000      1.00000000      1.00000000      1.00000000      1.00000000      1.00000000      1.00000000      1.00000000      1.00000000      1.00000000      1.00000000      1.00000000      1.00000000      1.00000000      1.00000000      1.00000000      1.00000000      1.00000000      1.00000000
      1.00000000      1.00000000      1.00000000      1.00000000      1.00000000      1.00000000      1.00000000      1.00000000      1.00000000      1.00000000      1.00000000      1.00000000      1.00000000      1.00000000      1.00000000      1.00000000      1.00000000      1.00000000      1.00000000      1.00000000
      1.00000000      1.00000000      1.00000000      1.00000000      1.00000000      1.00000000      1.00000000      1.00000000      1.00000000      1.00000000      1.00000000      1.00000000      1.00000000      1.00000000      1.00000000      1.00000000      1.00000000      1.00000000      1.00000000      1.00000000
      1.00000000      1.00000000      1.00000000      1.00000000      1.00000000      1.00000000      1.00000000      1.00000000      1.00000000      1.00000000      1.00000000      1.00000000      1.00000000      1.00000000      1.00000000      1.00000000      1.00000000      1.00000000      1.00000000      1.00000000
      1.00000000      1.00000000      1.00000000      1.00000000      1.00000000      1.00000000      1.00000000      1.00000000      1.00000000      1.00000000      1.00000000      1.00000000      1.00000000      1.00000000      1.00000000      1.00000000      1.00000000      1.00000000      1.00000000      1.00000000
</v>
    <i name="NUPDOWN">     -1.00000000</i>
    <i type="logical" name="LSORBIT"> F  </i>
    <v name="SAXIS">      0.00000000      0.00000000      1.00000000</v>
    <i type="logical" name="LSPIRAL"> F  </i>
    <v name="QSPIRAL">      0.00000000      0.00000000      0.00000000</v>
    <i type="logical" name="LZEROZ"> F  </i>
   </separator>
   <separator name="electronic exchange-correlation" >
    <i type="logical" name="LASPH"> F  </i>
    <i type="logical" name="LMETAGGA"> F  </i>
   </separator>
   <separator name="electronic convergence" >
    <i type="int" name="NELM">    60</i>
    <i type="int" name="NELMDL">    -5</i>
    <i type="int" name="NELMIN">     2</i>
    <i name="ENINI">    500.00000000</i>
    <separator name="electronic convergence detail" >
     <i type="logical" name="LDIAG"> T  </i>
     <i type="logical" name="LSUBROT"> F  </i>
     <i name="WEIMIN">      0.00100000</i>
     <i name="EBREAK">      0.00000000</i>
     <i name="DEPER">      0.30000000</i>
     <i type="int" name="NRMM">     4</i>
     <i name="TIME">      0.40000000</i>
    </separator>
   </separator>
   <separator name="electronic mixer" >
    <i name="AMIX">      0.40000000</i>
    <i name="BMIX">      1.00000000</i>
    <i name="AMIN">      0.10000000</i>
    <i name="AMIX_MAG">      1.60000000</i>
    <i name="BMIX_MAG">      1.00000000</i>
    <separator name="electronic mixer details" >
     <i type="int" name="IMIX">     4</i>
     <i type="logical" name="MIXFIRST"> F  </i>
     <i type="int" name="MAXMIX">   -45</i>
     <i name="WC">    100.00000000</i>
     <i type="int" name="INIMIX">     1</i>
     <i type="int" name="MIXPRE">     1</i>
     <i type="int" name="MREMOVE">     5</i>
    </separator>
   </separator>
   <separator name="electronic dipolcorrection" >
    <i type="logical" name="LDIPOL"> F  </i>
    <i type="logical" name="LMONO"> F  </i>
    <i type="int" name="IDIPOL">     0</i>
    <i name="EPSILON">      1.00000000</i>
    <v name="DIPOL">   -100.00000000   -100.00000000   -100.00000000</v>
    <i name="EFIELD">      0.00000000</i>
   </separator>
  </separator>
  <separator name="grids" >
   <i type="int" name="NGX">   144</i>
   <i type="int" name="NGY">   144</i>
   <i type="int" name="NGZ">   112</i>
   <i type="int" name="NGXF">   288</i>
   <i type="int" name="NGYF">   288</i>
   <i type="int" name="NGZF">   224</i>
   <i type="logical" name="ADDGRID"> F  </i>
  </separator>
  <separator name="ionic" >
   <i type="int" name="NSW">  1000</i>
   <i type="int" name="IBRION">     2</i>
   <i type="int" name="MDALGO">     0</i>
   <i type="int" name="ISIF">     2</i>
   <i name="PSTRESS">      0.00000000</i>
   <i name="EDIFFG">     -0.01000000</i>
   <i type="int" name="NFREE">     1</i>
   <i name="POTIM">      0.50000000</i>
   <i name="SMASS">     -3.00000000</i>
   <i name="SCALEE">      1.00000000</i>
  </separator>
  <separator name="ionic md" >
   <i name="TEBEG">      0.00010000</i>
   <i name="TEEND">      0.00010000</i>
   <i type="int" name="NBLOCK">     1</i>
   <i type="int" name="KBLOCK">  1000</i>
   <i type="int" name="NPACO">   256</i>
   <i name="APACO">     16.00000000</i>
  </separator>
  <separator name="symmetry" >
   <i type="int" name="ISYM">     2</i>
   <i name="SYMPREC">      0.00001000</i>
  </separator>
  <separator name="dos" >
   <i type="int" name="LORBIT">     0</i>
   <v name="RWIGS">     -1.00000000     -1.00000000     -1.00000000     -1.00000000     -1.00000000</v>
   <i type="int" name="NEDOS">   301</i>
   <i name="EMIN">     10.00000000</i>
   <i name="EMAX">    -10.00000000</i>
   <i name="EFERMI">      0.00000000</i>
  </separator>
  <separator name="writing" >
   <i type="int" name="NWRITE">     2</i>
   <i type="logical" name="LWAVE"> F  </i>
   <i type="logical" name="LDOWNSAMPLE"> F  </i>
   <i type="logical" name="LCHARG"> F  </i>
   <i type="logical" name="LPARD"> F  </i>
   <i type="logical" name="LVTOT"> F  </i>
   <i type="logical" name="LVHAR"> F  </i>
   <i type="logical" name="LELF"> F  </i>
   <i type="logical" name="LOPTICS"> F  </i>
   <v name="STM">      0.00000000      0.00000000      0.00000000      0.00000000      0.00000000      0.00000000      0.00000000</v>
  </separator>
  <separator name="performance" >
   <i type="int" name="NPAR">     1</i>
   <i type="int" name="NSIM">     4</i>
   <i type="int" name="NBLK">    -1</i>
   <i type="logical" name="LPLANE"> T  </i>
   <i type="logical" name="LSCALAPACK"> T  </i>
   <i type="logical" name="LSCAAWARE"> F  </i>
   <i type="logical" name="LSCALU"> F  </i>
   <i type="logical" name="LASYNC"> F  </i>
   <i type="logical" name="LORBITALREAL"> F  </i>
  </separator>
  <separator name="miscellaneous" >
   <i type="int" name="IDIOT">     3</i>
   <i type="int" name="ISPECIAL">     0</i>
   <i type="logical" name="LMUSIC"> F  </i>
   <v name="POMASS">     12.01100000     26.98100000     32.06600000     35.45300000     63.54600000</v>
   <v name="DARWINR">      0.00000000      0.00000000      0.00000000      0.00000000      0.00000000</v>
   <v name="DARWINV">      1.00000000      1.00000000      1.00000000      1.00000000      1.00000000</v>
   <i type="logical" name="LCORR"> T  </i>
  </separator>
  <i type="logical" name="GGA_COMPAT"> T  </i>
  <i type="logical" name="LBERRY"> F  </i>
  <i type="int" name="ICORELEVEL">     0</i>
  <i type="logical" name="LDAU"> F  </i>
  <i type="int" name="I_CONSTRAINED_M">     0</i>
  <separator name="electronic exchange-correlation" >
   <i type="string" name="GGA">--</i>
   <i type="int" name="VOSKOWN">     0</i>
   <i type="logical" name="LHFCALC"> F  </i>
   <i type="string" name="PRECFOCK"></i>
   <i type="logical" name="LSYMGRAD"> F  </i>
   <i type="logical" name="LHFONE"> F  </i>
   <i type="logical" name="LRHFCALC"> F  </i>
   <i type="logical" name="LTHOMAS"> F  </i>
   <i type="logical" name="LMODELHF"> F  </i>
   <i name="ENCUT4O">     -1.00000000</i>
   <i type="int" name="EXXOEP">     0</i>
   <i type="int" name="FOURORBIT">     0</i>
   <i name="AEXX">      0.00000000</i>
   <i name="HFALPHA">      0.00000000</i>
   <i name="MCALPHA">      0.00000000</i>
   <i name="ALDAX">      1.00000000</i>
   <i name="AGGAX">      1.00000000</i>
   <i name="ALDAC">      1.00000000</i>
   <i name="AGGAC">      1.00000000</i>
   <i type="int" name="NKREDX">     1</i>
   <i type="int" name="NKREDY">     1</i>
   <i type="int" name="NKREDZ">     1</i>
   <i type="logical" name="SHIFTRED"> F  </i>
   <i type="logical" name="ODDONLY"> F  </i>
   <i type="logical" name="EVENONLY"> F  </i>
   <i type="int" name="LMAXFOCK">     0</i>
   <i type="int" name="NMAXFOCKAE">     0</i>
   <i type="logical" name="LFOCKAEDFT"> F  </i>
   <i name="HFSCREEN">      0.00000000</i>
   <i name="HFSCREENC">      0.00000000</i>
   <i type="int" name="NBANDSGWLOW">     0</i>
  </separator>
  <separator name="vdW DFT" >
   <i type="logical" name="LUSE_VDW"> F  </i>
   <i name="Zab_VDW">     -0.84910000</i>
   <i name="PARAM1">      0.12340000</i>
   <i name="PARAM2">      1.00000000</i>
   <i name="PARAM3">      0.00000000</i>
  </separator>
  <separator name="model GW" >
   <i type="int" name="MODEL_GW">     0</i>
   <i name="MODEL_EPS0">     51.73590577</i>
   <i name="MODEL_ALPHA">      1.00000000</i>
  </separator>
  <separator name="linear response parameters" >
   <i type="logical" name="LEPSILON"> F  </i>
   <i type="logical" name="LRPA"> F  </i>
   <i type="logical" name="LNABLA"> F  </i>
   <i type="logical" name="LVEL"> F  </i>
   <i type="int" name="KINTER">     0</i>
   <i name="CSHIFT">      0.10000000</i>
   <i name="OMEGAMAX">     -1.00000000</i>
   <i name="DEG_THRESHOLD">      0.00200000</i>
   <i name="RTIME">     -0.10000000</i>
   <i name="WPLASMAI">      0.00000000</i>
   <v name="DFIELD">      0.00000000      0.00000000      0.00000000</v>
   <v name="WPLASMA">      0.00000000      0.00000000      0.00000000      0.00000000      0.00000000      0.00000000      0.00000000      0.00000000      0.00000000</v>
  </separator>
  <separator name="orbital magnetization" >
   <i type="logical" name="NUCIND"> F  </i>
   <v name="MAGPOS">      0.00000000      0.00000000      0.00000000</v>
   <i type="logical" name="LNICSALL"> T  </i>
   <i type="logical" name="ORBITALMAG"> F  </i>
   <i type="logical" name="LMAGBLOCH"> F  </i>
   <i type="logical" name="LCHIMAG"> F  </i>
   <i type="logical" name="LGAUGE"> T  </i>
   <i type="int" name="MAGATOM">     0</i>
   <v name="MAGDIPOL">      0.00000000      0.00000000      0.00000000</v>
   <v name="AVECCONST">      0.00000000      0.00000000      0.00000000</v>
  </separator>
  <separator name="response functions" >
   <i type="logical" name="LADDER"> F  </i>
   <i type="logical" name="LRPAFORCE"> F  </i>
   <i type="logical" name="LFXC"> F  </i>
   <i type="logical" name="LHARTREE"> T  </i>
   <i type="int" name="IBSE">     0</i>
   <v type="int" name="KPOINT">    -1     0     0     0</v>
   <i type="logical" name="LTCTE"> F  </i>
   <i type="logical" name="LTETE"> F  </i>
   <i type="logical" name="LTRIPLET"> F  </i>
   <i type="logical" name="LFXCEPS"> F  </i>
   <i type="logical" name="LFXHEG"> F  </i>
   <i type="int" name="NATURALO">     2</i>
   <i type="logical" name="L2ORDER"> F  </i>
   <i type="logical" name="LMP2LT"> F  </i>
   <i type="logical" name="LUSEW"> F  </i>
   <i name="ENCUTGW">     -2.00000000</i>
   <i name="ENCUTGWSOFT">     -2.00000000</i>
   <i name="ENCUTLF">     -1.00000000</i>
   <i type="int" name="LMAXMP2">    -1</i>
   <i name="SCISSOR">      0.00000000</i>
   <i type="int" name="NOMEGA">     0</i>
   <i type="int" name="NOMEGAR">     0</i>
   <i type="int" name="NBANDSGW">    -1</i>
   <i type="int" name="NBANDSO">    -1</i>
   <i type="int" name="NBANDSV">    -1</i>
   <i type="int" name="NELM">     1</i>
   <i type="int" name="NELMHF">     1</i>
   <i type="int" name="DIM">     3</i>
   <i type="int" name="ANTIRES">     0</i>
   <i name="OMEGAMAX">    -30.00000000</i>
   <i name="OMEGAMIN">    -30.00000000</i>
   <i name="OMEGATL">   -200.00000000</i>
   <i type="int" name="OMEGAGRID">   140</i>
   <i name="CSHIFT">     -0.10000000</i>
   <i type="logical" name="SELFENERGY"> F  </i>
   <i type="logical" name="LSPECTRAL"> F  </i>
   <i type="logical" name="LSPECTRALGW"> F  </i>
   <i type="logical" name="LSINGLES"> F  </i>
   <i type="logical" name="LFERMIGW"> F  </i>
   <i type="logical" name="ODDONLYGW"> F  </i>
   <i type="logical" name="EVENONLYGW"> F  </i>
   <i type="int" name="NKREDLFX">     1</i>
   <i type="int" name="NKREDLFY">     1</i>
   <i type="int" name="NKREDLFZ">     1</i>
   <i type="int" name="MAXMEM">  2800</i>
   <i type="int" name="TELESCOPE">     0</i>
   <i type="int" name="TAUPAR">     1</i>
   <i type="int" name="OMEGAPAR">    -1</i>
   <i name="LAMBDA">      1.00000000</i>
  </separator>
  <separator name="External order field" >
   <i name="OFIELD_KAPPA">      0.00000000</i>
   <v name="OFIELD_K">      0.00000000      0.00000000      0.00000000</v>
   <i name="OFIELD_Q6_NEAR">      0.00000000</i>
   <i name="OFIELD_Q6_FAR">      0.00000000</i>
   <i name="OFIELD_A">      0.00000000</i>
  </separator>
 </parameters>
 <atominfo>
  <atoms>     140 </atoms>
  <types>       5 </types>
  <array name="atoms" >
   <dimension dim="1">ion</dimension>
   <field type="string">element</field>
   <field type="int">atomtype</field>
   <set>
    <rc><c>C </c><c>   1</c></rc>
    <rc><c>C </c><c>   1</c></rc>
    <rc><c>C </c><c>   1</c></rc>
    <rc><c>C </c><c>   1</c></rc>
    <rc><c>C </c><c>   1</c></rc>
    <rc><c>C </c><c>   1</c></rc>
    <rc><c>C </c><c>   1</c></rc>
    <rc><c>C </c><c>   1</c></rc>
    <rc><c>C </c><c>   1</c></rc>
    <rc><c>C </c><c>   1</c></rc>
    <rc><c>C </c><c>   1</c></rc>
    <rc><c>C </c><c>   1</c></rc>
    <rc><c>C </c><c>   1</c></rc>
    <rc><c>C </c><c>   1</c></rc>
    <rc><c>C </c><c>   1</c></rc>
    <rc><c>C </c><c>   1</c></rc>
    <rc><c>C </c><c>   1</c></rc>
    <rc><c>C </c><c>   1</c></rc>
    <rc><c>C </c><c>   1</c></rc>
    <rc><c>C </c><c>   1</c></rc>
    <rc><c>C </c><c>   1</c></rc>
    <rc><c>C </c><c>   1</c></rc>
    <rc><c>C </c><c>   1</c></rc>
    <rc><c>C </c><c>   1</c></rc>
    <rc><c>C </c><c>   1</c></rc>
    <rc><c>C </c><c>   1</c></rc>
    <rc><c>C </c><c>   1</c></rc>
    <rc><c>C </c><c>   1</c></rc>
    <rc><c>C </c><c>   1</c></rc>
    <rc><c>C </c><c>   1</c></rc>
    <rc><c>C </c><c>   1</c></rc>
    <rc><c>C </c><c>   1</c></rc>
    <rc><c>C </c><c>   1</c></rc>
    <rc><c>C </c><c>   1</c></rc>
    <rc><c>C </c><c>   1</c></rc>
    <rc><c>C </c><c>   1</c></rc>
    <rc><c>C </c><c>   1</c></rc>
    <rc><c>C </c><c>   1</c></rc>
    <rc><c>C </c><c>   1</c></rc>
    <rc><c>C </c><c>   1</c></rc>
    <rc><c>C </c><c>   1</c></rc>
    <rc><c>C </c><c>   1</c></rc>
    <rc><c>C </c><c>   1</c></rc>
    <rc><c>C </c><c>   1</c></rc>
    <rc><c>C </c><c>   1</c></rc>
    <rc><c>C </c><c>   1</c></rc>
    <rc><c>C </c><c>   1</c></rc>
    <rc><c>C </c><c>   1</c></rc>
    <rc><c>C </c><c>   1</c></rc>
    <rc><c>C </c><c>   1</c></rc>
    <rc><c>C </c><c>   1</c></rc>
    <rc><c>C </c><c>   1</c></rc>
    <rc><c>C </c><c>   1</c></rc>
    <rc><c>C </c><c>   1</c></rc>
    <rc><c>Al</c><c>   2</c></rc>
    <rc><c>S </c><c>   3</c></rc>
    <rc><c>S </c><c>   3</c></rc>
    <rc><c>S </c><c>   3</c></rc>
    <rc><c>S </c><c>   3</c></rc>
    <rc><c>S </c><c>   3</c></rc>
    <rc><c>S </c><c>   3</c></rc>
    <rc><c>S </c><c>   3</c></rc>
    <rc><c>S </c><c>   3</c></rc>
    <rc><c>S </c><c>   3</c></rc>
    <rc><c>S </c><c>   3</c></rc>
    <rc><c>S </c><c>   3</c></rc>
    <rc><c>S </c><c>   3</c></rc>
    <rc><c>S </c><c>   3</c></rc>
    <rc><c>S </c><c>   3</c></rc>
    <rc><c>S </c><c>   3</c></rc>
    <rc><c>S </c><c>   3</c></rc>
    <rc><c>S </c><c>   3</c></rc>
    <rc><c>S </c><c>   3</c></rc>
    <rc><c>S </c><c>   3</c></rc>
    <rc><c>S </c><c>   3</c></rc>
    <rc><c>S </c><c>   3</c></rc>
    <rc><c>S </c><c>   3</c></rc>
    <rc><c>S </c><c>   3</c></rc>
    <rc><c>S </c><c>   3</c></rc>
    <rc><c>S </c><c>   3</c></rc>
    <rc><c>S </c><c>   3</c></rc>
    <rc><c>S </c><c>   3</c></rc>
    <rc><c>S </c><c>   3</c></rc>
    <rc><c>S </c><c>   3</c></rc>
    <rc><c>S </c><c>   3</c></rc>
    <rc><c>S </c><c>   3</c></rc>
    <rc><c>S </c><c>   3</c></rc>
    <rc><c>S </c><c>   3</c></rc>
    <rc><c>S </c><c>   3</c></rc>
    <rc><c>S </c><c>   3</c></rc>
    <rc><c>S </c><c>   3</c></rc>
    <rc><c>S </c><c>   3</c></rc>
    <rc><c>S </c><c>   3</c></rc>
    <rc><c>S </c><c>   3</c></rc>
    <rc><c>S </c><c>   3</c></rc>
    <rc><c>S </c><c>   3</c></rc>
    <rc><c>S </c><c>   3</c></rc>
    <rc><c>S </c><c>   3</c></rc>
    <rc><c>S </c><c>   3</c></rc>
    <rc><c>S </c><c>   3</c></rc>
    <rc><c>S </c><c>   3</c></rc>
    <rc><c>S </c><c>   3</c></rc>
    <rc><c>S </c><c>   3</c></rc>
    <rc><c>S </c><c>   3</c></rc>
    <rc><c>S </c><c>   3</c></rc>
    <rc><c>S </c><c>   3</c></rc>
    <rc><c>S </c><c>   3</c></rc>
    <rc><c>S </c><c>   3</c></rc>
    <rc><c>S </c><c>   3</c></rc>
    <rc><c>Cl</c><c>   4</c></rc>
    <rc><c>Cl</c><c>   4</c></rc>
    <rc><c>Cl</c><c>   4</c></rc>
    <rc><c>Cl</c><c>   4</c></rc>
    <rc><c>Cu</c><c>   5</c></rc>
    <rc><c>Cu</c><c>   5</c></rc>
    <rc><c>Cu</c><c>   5</c></rc>
    <rc><c>Cu</c><c>   5</c></rc>
    <rc><c>Cu</c><c>   5</c></rc>
    <rc><c>Cu</c><c>   5</c></rc>
    <rc><c>Cu</c><c>   5</c></rc>
    <rc><c>Cu</c><c>   5</c></rc>
    <rc><c>Cu</c><c>   5</c></rc>
    <rc><c>Cu</c><c>   5</c></rc>
    <rc><c>Cu</c><c>   5</c></rc>
    <rc><c>Cu</c><c>   5</c></rc>
    <rc><c>Cu</c><c>   5</c></rc>
    <rc><c>Cu</c><c>   5</c></rc>
    <rc><c>Cu</c><c>   5</c></rc>
    <rc><c>Cu</c><c>   5</c></rc>
    <rc><c>Cu</c><c>   5</c></rc>
    <rc><c>Cu</c><c>   5</c></rc>
    <rc><c>Cu</c><c>   5</c></rc>
    <rc><c>Cu</c><c>   5</c></rc>
    <rc><c>Cu</c><c>   5</c></rc>
    <rc><c>Cu</c><c>   5</c></rc>
    <rc><c>Cu</c><c>   5</c></rc>
    <rc><c>Cu</c><c>   5</c></rc>
    <rc><c>Cu</c><c>   5</c></rc>
    <rc><c>Cu</c><c>   5</c></rc>
    <rc><c>Cu</c><c>   5</c></rc>
   </set>
  </array>
  <array name="atomtypes" >
   <dimension dim="1">type</dimension>
   <field type="int">atomspertype</field>
   <field type="string">element</field>
   <field>mass</field>
   <field>valence</field>
   <field type="string">pseudopotential</field>
   <set>
    <rc><c>  54</c><c>C </c><c>     12.01100000</c><c>      4.00000000</c><c>  PAW_PBE C 08Apr2002                   </c></rc>
    <rc><c>   1</c><c>Al</c><c>     26.98100000</c><c>      3.00000000</c><c>  PAW_PBE Al 04Jan2001                  </c></rc>
    <rc><c>  54</c><c>S </c><c>     32.06600000</c><c>      6.00000000</c><c>  PAW_PBE S 06Sep2000                   </c></rc>
    <rc><c>   4</c><c>Cl</c><c>     35.45300000</c><c>      7.00000000</c><c>  PAW_PBE Cl 06Sep2000                  </c></rc>
    <rc><c>  27</c><c>Cu</c><c>     63.54600000</c><c>     11.00000000</c><c>  PAW_PBE Cu 22Jun2005                  </c></rc>
   </set>
  </array>
 </atominfo>
 <structure name="initialpos" >
  <crystal>
   <varray name="basis" >
    <v>      26.26650047       0.00000000       0.00000000 </v>
    <v>     -13.13288029      22.74974710       0.00000000 </v>
    <v>       0.00000000       0.00000000      20.20179939 </v>
   </varray>
   <i name="volume">  12071.71134534 </i>
   <varray name="rec_basis" >
    <v>       0.03807131       0.02197765       0.00000000 </v>
    <v>       0.00000000       0.04395653       0.00000000 </v>
    <v>       0.00000000       0.00000000       0.04950054 </v>
   </varray>
  </crystal>
  <varray name="positions" >
   <v>       0.02980496       0.30218825       0.50001190 </v>
   <v>       0.02984702       0.06202942       0.49999706 </v>
   <v>       0.27005327       0.30220454       0.50001425 </v>
   <v>       0.06091442       0.03095775       0.49999875 </v>
   <v>       0.30100426       0.27100923       0.49998900 </v>
   <v>       0.30101723       0.03100302       0.49998954 </v>
   <v>       0.36326080       0.30211553       0.49995164 </v>
   <v>       0.36326635       0.06214889       0.49995729 </v>
   <v>       0.60317546       0.30208670       0.50062705 </v>
   <v>       0.39437732       0.03103252       0.49996159 </v>
   <v>       0.63430456       0.27097832       0.50062390 </v>
   <v>       0.63434245       0.03103105       0.49996058 </v>
   <v>       0.69654801       0.30210167       0.50065734 </v>
   <v>       0.69655676       0.06213981       0.49995947 </v>
   <v>       0.93653048       0.30213892       0.49996078 </v>
   <v>       0.72765502       0.03100362       0.49999230 </v>
   <v>       0.96764862       0.27101999       0.49999162 </v>
   <v>       0.96771553       0.03095765       0.49999972 </v>
   <v>       0.02986284       0.63544604       0.49999470 </v>
   <v>       0.02987545       0.39543758       0.49999310 </v>
   <v>       0.26997658       0.63550906       0.49999956 </v>
   <v>       0.06083963       0.36425758       0.50001184 </v>
   <v>       0.30104625       0.60443529       0.49999687 </v>
   <v>       0.30109356       0.36426676       0.50001372 </v>
   <v>       0.36317889       0.63549390       0.49999863 </v>
   <v>       0.36323896       0.39544566       0.49999161 </v>
   <v>       0.60321983       0.63545630       0.49999105 </v>
   <v>       0.39437600       0.36433365       0.49995419 </v>
   <v>       0.63431974       0.60431219       0.49995903 </v>
   <v>       0.63431222       0.36435525       0.50063855 </v>
   <v>       0.69655679       0.63541359       0.49995997 </v>
   <v>       0.69659188       0.39550258       0.50065524 </v>
   <v>       0.93652371       0.63543146       0.49995677 </v>
   <v>       0.72768629       0.36434007       0.50065568 </v>
   <v>       0.96761975       0.60431070       0.49995976 </v>
   <v>       0.96763037       0.36433313       0.49996245 </v>
   <v>       0.02983389       0.96883150       0.49999616 </v>
   <v>       0.02981114       0.72863257       0.50001153 </v>
   <v>       0.27003772       0.96887546       0.50001385 </v>
   <v>       0.06084327       0.69758479       0.50001169 </v>
   <v>       0.30108383       0.93783161       0.50001336 </v>
   <v>       0.30105514       0.69762667       0.49999701 </v>
   <v>       0.36322143       0.96880249       0.49999586 </v>
   <v>       0.36318737       0.72869191       0.49999912 </v>
   <v>       0.60323083       0.96880671       0.49999214 </v>
   <v>       0.39425482       0.69762621       0.49999650 </v>
   <v>       0.63438990       0.93782480       0.50001105 </v>
   <v>       0.63440573       0.69758345       0.50001342 </v>
   <v>       0.69648066       0.96886790       0.50001161 </v>
   <v>       0.69648394       0.72861393       0.50001390 </v>
   <v>       0.93663926       0.96884142       0.49999695 </v>
   <v>       0.72766969       0.69766451       0.49999213 </v>
   <v>       0.96769640       0.93775509       0.49999892 </v>
   <v>       0.96766400       0.69765560       0.49998838 </v>
   <v>       0.65607527       0.33465825       0.74864599 </v>
   <v>       0.06789781       0.13814886       0.49997588 </v>
   <v>       0.19393215       0.26414799       0.49999625 </v>
   <v>       0.13704584       0.06902603       0.49999856 </v>
   <v>       0.26301865       0.19497667       0.49996142 </v>
   <v>       0.26301337       0.06905636       0.49995515 </v>
   <v>       0.40135176       0.26412065       0.49990235 </v>
   <v>       0.40135989       0.13823431       0.49989459 </v>
   <v>       0.52742416       0.26425423       0.50018843 </v>
   <v>       0.47045991       0.06918534       0.49989570 </v>
   <v>       0.59640589       0.19519768       0.50012465 </v>
   <v>       0.59635570       0.06914946       0.49991572 </v>
   <v>       0.73444316       0.26418171       0.50009226 </v>
   <v>       0.73451702       0.13823297       0.49990914 </v>
   <v>       0.86042179       0.26417549       0.49991049 </v>
   <v>       0.80370196       0.06906489       0.49996637 </v>
   <v>       0.92958716       0.19497931       0.49996527 </v>
   <v>       0.92963725       0.06900067       0.49999791 </v>
   <v>       0.06782482       0.59735480       0.49996786 </v>
   <v>       0.06783958       0.47146255       0.49996517 </v>
   <v>       0.19384036       0.59745051       0.49999858 </v>
   <v>       0.13696564       0.40233265       0.49999475 </v>
   <v>       0.26295357       0.52829241       0.49997620 </v>
   <v>       0.26303046       0.40230254       0.49999690 </v>
   <v>       0.40120046       0.59740347       0.49999987 </v>
   <v>       0.40127225       0.47146276       0.49996285 </v>
   <v>       0.52719462       0.59740559       0.49995848 </v>
   <v>       0.47046916       0.40229789       0.49990465 </v>
   <v>       0.59635350       0.52819788       0.49989600 </v>
   <v>       0.59640568       0.40223042       0.50012067 </v>
   <v>       0.73448205       0.59723582       0.49989609 </v>
   <v>       0.73446091       0.47127919       0.50016570 </v>
   <v>       0.86042459       0.59731790       0.49991312 </v>
   <v>       0.80352197       0.40227414       0.50008947 </v>
   <v>       0.92947391       0.52821520       0.49990876 </v>
   <v>       0.92948337       0.40226954       0.49991359 </v>
   <v>       0.06788396       0.93072166       0.49997486 </v>
   <v>       0.06783400       0.80472684       0.49999800 </v>
   <v>       0.19393062       0.93084981       0.49999506 </v>
   <v>       0.13696062       0.73563927       0.49999569 </v>
   <v>       0.26302150       0.86173815       0.49999491 </v>
   <v>       0.26295959       0.73567507       0.49997784 </v>
   <v>       0.40124387       0.93079140       0.49996233 </v>
   <v>       0.40122266       0.80480999       0.49999815 </v>
   <v>       0.52719318       0.93084046       0.49996325 </v>
   <v>       0.47037223       0.73569212       0.49997596 </v>
   <v>       0.59632278       0.86172349       0.49999634 </v>
   <v>       0.59633314       0.73559732       0.49999586 </v>
   <v>       0.73451651       0.93078330       0.49999652 </v>
   <v>       0.73452812       0.80471363       0.49999579 </v>
   <v>       0.86051385       0.93078638       0.49997659 </v>
   <v>       0.80369543       0.73563161       0.49995936 </v>
   <v>       0.92962935       0.86164402       0.49999921 </v>
   <v>       0.92958738       0.73561778       0.49995978 </v>
   <v>       0.06782153       0.26408928       0.49999493 </v>
   <v>       0.72144433       0.31736043       0.70470614 </v>
   <v>       0.67109360       0.41884954       0.71179701 </v>
   <v>       0.56981433       0.26648659       0.71643373 </v>
   <v>       0.66072975       0.33525937       0.85637316 </v>
   <v>       0.49898298       0.33319727       0.50116126 </v>
   <v>       0.99871892       0.16652881       0.50004281 </v>
   <v>       0.83204139       0.16664596       0.50021506 </v>
   <v>       0.83179705       0.33319993       0.50120956 </v>
   <v>       0.33204764       0.49984044       0.50004443 </v>
   <v>       0.16541858       0.49990300       0.50004214 </v>
   <v>       0.16539700       0.66655421       0.50004107 </v>
   <v>       0.66538434       0.49957043       0.50152001 </v>
   <v>       0.49882940       0.49984926       0.50024955 </v>
   <v>       0.49874271       0.66654898       0.50004672 </v>
   <v>       0.99859546       0.49978963       0.50020338 </v>
   <v>       0.83182385       0.49966778       0.50097701 </v>
   <v>       0.83199280       0.66641651       0.50024564 </v>
   <v>       0.33204970       0.83319539       0.50004536 </v>
   <v>       0.16542330       0.83324993       0.50004149 </v>
   <v>       0.16541239       0.99988234       0.50004937 </v>
   <v>       0.66538182       0.83318667       0.50004119 </v>
   <v>       0.49876963       0.83325475       0.50004268 </v>
   <v>       0.49878459       0.00000047       0.50021525 </v>
   <v>       0.99871742       0.83317891       0.50004455 </v>
   <v>       0.83208443       0.83323879       0.50004684 </v>
   <v>       0.83205877       0.99987963       0.50004142 </v>
   <v>       0.33218440       0.16658317       0.50026914 </v>
   <v>       0.16543477       0.16659357       0.50004664 </v>
   <v>       0.16540187       0.33321923       0.50004045 </v>
   <v>       0.66541539       0.16678633       0.50096592 </v>
   <v>       0.49899293       0.16686558       0.50136546 </v>
  </varray>
 </structure>
 <calculation>
  <scstep>
   <time name="dav">  820.27  820.99</time>
   <time name="total">  821.95  822.72</time>
   <energy>
    <i name="alphaZ">    315.09161757 </i>
    <i name="ewald"> 106271.72894380 </i>
    <i name="hartreedc">-160841.61297765 </i>
    <i name="XCdc">   2664.49412410 </i>
    <i name="pawpsdc">  52118.65182442 </i>
    <i name="pawaedc"> -54801.79846914 </i>
    <i name="eentropy">     -0.11264552 </i>
    <i name="bandstr">    -40.35211920 </i>
    <i name="atom">  62143.14740716 </i>
    <i name="e_fr_energy">   7829.23770554 </i>
    <i name="e_wo_entrp">   7829.35035106 </i>
    <i name="e_0_energy">   7829.29402830 </i>
   </energy>
  </scstep>
  <scstep>
   <time name="dav">  963.67  964.12</time>
   <time name="total">  963.68  964.14</time>
   <energy>
    <i name="e_fr_energy">   1007.52332932 </i>
    <i name="e_wo_entrp">   1007.55600672 </i>
    <i name="e_0_energy">   1007.53966802 </i>
   </energy>
  </scstep>
  <scstep>
   <time name="dav"> 1108.10 1108.59</time>
   <time name="total"> 1108.11 1108.60</time>
   <energy>
    <i name="e_fr_energy">   -739.22275647 </i>
    <i name="e_wo_entrp">   -739.11628617 </i>
    <i name="e_0_energy">   -739.16952132 </i>
   </energy>
  </scstep>
  <scstep>
   <time name="dav"> 1205.44 1206.06</time>
   <time name="total"> 1205.46 1206.07</time>
   <energy>
    <i name="e_fr_energy">   -903.66484219 </i>
    <i name="e_wo_entrp">   -903.53942459 </i>
    <i name="e_0_energy">   -903.60213339 </i>
   </energy>
  </scstep>
  <scstep>
   <time name="dav"> 1245.15 1245.80</time>
   <time name="total"> 1258.28 1258.95</time>
   <energy>
    <i name="e_fr_energy">   -910.02794576 </i>
    <i name="e_wo_entrp">   -909.82214350 </i>
    <i name="e_0_energy">   -909.92504463 </i>
   </energy>
  </scstep>
  <scstep>
   <time name="diag">   67.70   67.73</time>
   <time name="diis">  626.90  627.17</time>
   <time name="orth">   20.14   20.15</time>
   <time name="total">  729.33  729.64</time>
   <energy>
    <i name="e_fr_energy">   -863.39122678 </i>
    <i name="e_wo_entrp">   -863.31769285 </i>
    <i name="e_0_energy">   -863.35445982 </i>
   </energy>
  </scstep>
  <scstep>
   <time name="diag">   67.72   67.74</time>
   <time name="diis">  545.16  545.37</time>
   <time name="orth">   20.10   20.11</time>
   <time name="total">  647.52  647.77</time>
   <energy>
    <i name="e_fr_energy">   -589.67149641 </i>
    <i name="e_wo_entrp">   -589.65693349 </i>
    <i name="e_0_energy">   -589.66421495 </i>
   </energy>
  </scstep>
  <scstep>
   <time name="diag">   67.56   67.58</time>
   <time name="diis">  594.72  594.96</time>
   <time name="orth">   20.14   20.15</time>
   <time name="total">  697.05  697.32</time>
   <energy>
    <i name="e_fr_energy">   -651.52742801 </i>
    <i name="e_wo_entrp">   -651.45615069 </i>
    <i name="e_0_energy">   -651.49178935 </i>
   </energy>
  </scstep>
  <scstep>
   <time name="diag">   67.52   67.54</time>
   <time name="diis">  578.29  578.52</time>
   <time name="orth">   20.16   20.16</time>
   <time name="total">  680.55  680.82</time>
   <energy>
    <i name="e_fr_energy">   -605.93587184 </i>
    <i name="e_wo_entrp">   -605.85669937 </i>
    <i name="e_0_energy">   -605.89628560 </i>
   </energy>
  </scstep>
  <scstep>
   <time name="diag">   67.69   67.73</time>
   <time name="diis">  547.17  547.37</time>
   <time name="orth">   20.16   20.16</time>
   <time name="total">  649.75  650.00</time>
   <energy>
    <i name="e_fr_energy">   -639.45164888 </i>
    <i name="e_wo_entrp">   -639.37338339 </i>
    <i name="e_0_energy">   -639.41251613 </i>
   </energy>
  </scstep>
  <scstep>
   <time name="diag">   67.64   67.68</time>
   <time name="diis">  554.29  554.50</time>
   <time name="orth">   20.15   20.15</time>
   <time name="total">  656.70  656.96</time>
   <energy>
    <i name="e_fr_energy">   -691.28938795 </i>
    <i name="e_wo_entrp">   -691.23752175 </i>
    <i name="e_0_energy">   -691.26345485 </i>
   </energy>
  </scstep>
  <scstep>
   <time name="diag">   67.77   67.79</time>
   <time name="diis">  561.28  561.50</time>
   <time name="orth">   20.12   20.12</time>
   <time name="total">  663.80  664.05</time>
   <energy>
    <i name="e_fr_energy">   -732.82083432 </i>
    <i name="e_wo_entrp">   -732.76807777 </i>
    <i name="e_0_energy">   -732.79445604 </i>
   </energy>
  </scstep>
  <scstep>
   <time name="diag">   67.77   67.79</time>
   <time name="diis">  574.84  575.06</time>
   <time name="orth">   20.11   20.11</time>
   <time name="total">  677.49  677.75</time>
   <energy>
    <i name="e_fr_energy">   -778.44015129 </i>
    <i name="e_wo_entrp">   -778.37232347 </i>
    <i name="e_0_energy">   -778.40623738 </i>
   </energy>
  </scstep>
  <scstep>
   <time name="diag">   67.68   67.71</time>
   <time name="diis">  573.88  574.11</time>
   <time name="orth">   20.10   20.11</time>
   <time name="total">  676.24  676.51</time>
   <energy>
    <i name="e_fr_energy">   -792.08478597 </i>
    <i name="e_wo_entrp">   -792.01582689 </i>
    <i name="e_0_energy">   -792.05030643 </i>
   </energy>
  </scstep>
  <scstep>
   <time name="diag">   67.69   67.71</time>
   <time name="diis">  561.86  562.09</time>
   <time name="orth">   20.13   20.13</time>
   <time name="total">  664.37  664.63</time>
   <energy>
    <i name="e_fr_energy">   -800.36923144 </i>
    <i name="e_wo_entrp">   -800.29264478 </i>
    <i name="e_0_energy">   -800.33093811 </i>
   </energy>
  </scstep>
  <scstep>
   <time name="diag">   67.78   67.80</time>
   <time name="diis">  541.95  542.16</time>
   <time name="orth">   20.09   20.10</time>
   <time name="total">  644.55  644.80</time>
   <energy>
    <i name="e_fr_energy">   -810.85473386 </i>
    <i name="e_wo_entrp">   -810.73183197 </i>
    <i name="e_0_energy">   -810.79328291 </i>
   </energy>
  </scstep>
  <scstep>
   <time name="diag">   67.62   67.64</time>
   <time name="diis">  618.97  619.21</time>
   <time name="orth">   20.21   20.22</time>
   <time name="total">  721.43  721.70</time>
   <energy>
    <i name="e_fr_energy">   -813.00993719 </i>
    <i name="e_wo_entrp">   -812.93797676 </i>
    <i name="e_0_energy">   -812.97395698 </i>
   </energy>
  </scstep>
  <scstep>
   <time name="diag">   67.55   67.57</time>
   <time name="diis">  551.27  551.48</time>
   <time name="orth">   20.13   20.14</time>
   <time name="total">  653.69  653.94</time>
   <energy>
    <i name="e_fr_energy">   -818.40544825 </i>
    <i name="e_wo_entrp">   -818.34996619 </i>
    <i name="e_0_energy">   -818.37770722 </i>
   </energy>
  </scstep>
  <scstep>
   <time name="diag">   67.55   67.57</time>
   <time name="diis">  585.88  586.11</time>
   <time name="orth">   20.11   20.11</time>
   <time name="total">  688.25  688.50</time>
   <energy>
    <i name="e_fr_energy">   -822.48090419 </i>
    <i name="e_wo_entrp">   -822.42138515 </i>
    <i name="e_0_energy">   -822.45114467 </i>
   </energy>
  </scstep>
  <scstep>
   <time name="diag">   67.57   67.59</time>
   <time name="diis">  603.15  603.38</time>
   <time name="orth">   20.23   20.26</time>
   <time name="total">  705.71  705.99</time>
   <energy>
    <i name="e_fr_energy">   -824.02224484 </i>
    <i name="e_wo_entrp">   -823.94789390 </i>
    <i name="e_0_energy">   -823.98506937 </i>
   </energy>
  </scstep>
  <scstep>
   <time name="diag">   67.63   67.65</time>
   <time name="diis">  613.86  614.10</time>
   <time name="orth">   20.14   20.14</time>
   <time name="total">  716.36  716.63</time>
   <energy>
    <i name="e_fr_energy">   -824.58887903 </i>
    <i name="e_wo_entrp">   -824.50511089 </i>
    <i name="e_0_energy">   -824.54699496 </i>
   </energy>
  </scstep>
  <scstep>
   <time name="diag">   67.73   67.75</time>
   <time name="diis">  640.05  640.30</time>
   <time name="orth">   20.20   20.20</time>
   <time name="total">  742.72  743.00</time>
   <energy>
    <i name="e_fr_energy">   -825.24924914 </i>
    <i name="e_wo_entrp">   -825.15754350 </i>
    <i name="e_0_energy">   -825.20339632 </i>
   </energy>
  </scstep>
  <scstep>
   <time name="diag">   67.57   67.60</time>
   <time name="diis">  600.47  600.71</time>
   <time name="orth">   20.14   20.14</time>
   <time name="total">  702.93  703.20</time>
   <energy>
    <i name="e_fr_energy">   -825.83209924 </i>
    <i name="e_wo_entrp">   -825.73677680 </i>
    <i name="e_0_energy">   -825.78443802 </i>
   </energy>
  </scstep>
  <scstep>
   <time name="diag">   67.81   67.84</time>
   <time name="diis">  593.23  593.45</time>
   <time name="orth">   20.20   20.21</time>
   <time name="total">  695.96  696.22</time>
   <energy>
    <i name="e_fr_energy">   -826.54017422 </i>
    <i name="e_wo_entrp">   -826.43100622 </i>
    <i name="e_0_energy">   -826.48559022 </i>
   </energy>
  </scstep>
  <scstep>
   <time name="diag">   67.65   67.67</time>
   <time name="diis">  591.91  592.14</time>
   <time name="orth">   20.14   20.15</time>
   <time name="total">  694.47  694.73</time>
   <energy>
    <i name="e_fr_energy">   -827.14738259 </i>
    <i name="e_wo_entrp">   -827.03654345 </i>
    <i name="e_0_energy">   -827.09196302 </i>
   </energy>
  </scstep>
  <scstep>
   <time name="diag">   67.63   67.65</time>
   <time name="diis">  602.02  602.27</time>
   <time name="orth">   20.12   20.13</time>
   <time name="total">  704.63  704.91</time>
   <energy>
    <i name="e_fr_energy">   -827.38194484 </i>
    <i name="e_wo_entrp">   -827.27796935 </i>
    <i name="e_0_energy">   -827.32995710 </i>
   </energy>
  </scstep>
  <scstep>
   <time name="diag">   67.71   67.75</time>
   <time name="diis">  582.33  582.56</time>
   <time name="orth">   20.21   20.22</time>
   <time name="total">  684.95  685.23</time>
   <energy>
    <i name="e_fr_energy">   -827.61086413 </i>
    <i name="e_wo_entrp">   -827.50689706 </i>
    <i name="e_0_energy">   -827.55888059 </i>
   </energy>
  </scstep>
  <scstep>
   <time name="diag">   67.83   67.85</time>
   <time name="diis">  584.67  584.90</time>
   <time name="orth">   20.30   20.30</time>
   <time name="total">  687.62  687.89</time>
   <energy>
    <i name="e_fr_energy">   -827.81041865 </i>
    <i name="e_wo_entrp">   -827.70448669 </i>
    <i name="e_0_energy">   -827.75745267 </i>
   </energy>
  </scstep>
  <scstep>
   <time name="diag">   67.68   67.71</time>
   <time name="diis">  564.78  565.00</time>
   <time name="orth">   20.15   20.15</time>
   <time name="total">  667.39  667.64</time>
   <energy>
    <i name="e_fr_energy">   -828.07937597 </i>
    <i name="e_wo_entrp">   -827.97281279 </i>
    <i name="e_0_energy">   -828.02609438 </i>
   </energy>
  </scstep>
  <scstep>
   <time name="diag">   67.80   67.82</time>
   <time name="diis">  589.86  590.09</time>
   <time name="orth">   20.14   20.14</time>
   <time name="total">  692.65  692.91</time>
   <energy>
    <i name="e_fr_energy">   -828.23780114 </i>
    <i name="e_wo_entrp">   -828.13324486 </i>
    <i name="e_0_energy">   -828.18552300 </i>
   </energy>
  </scstep>
  <scstep>
   <time name="diag">   67.63   67.65</time>
   <time name="diis">  567.27  567.49</time>
   <time name="orth">   20.13   20.13</time>
   <time name="total">  669.79  670.05</time>
   <energy>
    <i name="e_fr_energy">   -828.28428315 </i>
    <i name="e_wo_entrp">   -828.17944824 </i>
    <i name="e_0_energy">   -828.23186569 </i>
   </energy>
  </scstep>
  <scstep>
   <time name="diag">   67.67   67.70</time>
   <time name="diis">  575.96  576.19</time>
   <time name="orth">   20.16   20.17</time>
   <time name="total">  678.59  678.86</time>
   <energy>
    <i name="e_fr_energy">   -828.29119314 </i>
    <i name="e_wo_entrp">   -828.18655796 </i>
    <i name="e_0_energy">   -828.23887555 </i>
   </energy>
  </scstep>
  <scstep>
   <time name="diag">   67.70   67.73</time>
   <time name="diis">  577.72  577.95</time>
   <time name="orth">   20.20   20.20</time>
   <time name="total">  680.38  680.65</time>
   <energy>
    <i name="e_fr_energy">   -828.29528735 </i>
    <i name="e_wo_entrp">   -828.19112703 </i>
    <i name="e_0_energy">   -828.24320719 </i>
   </energy>
  </scstep>
  <scstep>
   <time name="diag">   67.66   67.69</time>
   <time name="diis">  557.68  557.90</time>
   <time name="orth">   20.09   20.10</time>
   <time name="total">  660.26  660.51</time>
   <energy>
    <i name="e_fr_energy">   -828.29639410 </i>
    <i name="e_wo_entrp">   -828.19244528 </i>
    <i name="e_0_energy">   -828.24441969 </i>
   </energy>
  </scstep>
  <scstep>
   <time name="diag">   67.75   67.77</time>
   <time name="diis">  575.30  575.52</time>
   <time name="orth">   20.12   20.13</time>
   <time name="total">  678.00  678.25</time>
   <energy>
    <i name="e_fr_energy">   -828.29736825 </i>
    <i name="e_wo_entrp">   -828.19317041 </i>
    <i name="e_0_energy">   -828.24526933 </i>
   </energy>
  </scstep>
  <scstep>
   <time name="diag">   67.69   67.73</time>
   <time name="diis">  547.63  547.83</time>
   <time name="orth">   20.09   20.10</time>
   <time name="total">  650.28  650.54</time>
   <energy>
    <i name="e_fr_energy">   -828.29780186 </i>
    <i name="e_wo_entrp">   -828.19307679 </i>
    <i name="e_0_energy">   -828.24543933 </i>
   </energy>
  </scstep>
  <scstep>
   <time name="diag">   67.59   67.61</time>
   <time name="diis">  485.21  485.38</time>
   <time name="orth">   20.13   20.14</time>
   <time name="total">  587.77  587.98</time>
   <energy>
    <i name="e_fr_energy">   -828.29781460 </i>
    <i name="e_wo_entrp">   -828.19299683 </i>
    <i name="e_0_energy">   -828.24540571 </i>
   </energy>
  </scstep>
  <scstep>
   <time name="diag">   67.78   67.82</time>
   <time name="diis">  436.66  436.81</time>
   <time name="orth">   20.11   20.12</time>
   <time name="total">  539.34  539.55</time>
   <energy>
    <i name="e_fr_energy">   -828.29788231 </i>
    <i name="e_wo_entrp">   -828.19318896 </i>
    <i name="e_0_energy">   -828.24553563 </i>
   </energy>
  </scstep>
  <scstep>
   <time name="diag">   67.67   67.70</time>
   <time name="diis">  420.22  420.39</time>
   <time name="orth">   20.11   20.11</time>
   <time name="total">  522.83  523.04</time>
   <energy>
    <i name="e_fr_energy">   -828.29801369 </i>
    <i name="e_wo_entrp">   -828.19345403 </i>
    <i name="e_0_energy">   -828.24573386 </i>
   </energy>
  </scstep>
  <scstep>
   <time name="diag">   67.63   67.65</time>
   <time name="diis">  395.22  395.38</time>
   <time name="orth">   20.10   20.11</time>
   <time name="total">  497.87  498.06</time>
   <energy>
    <i name="e_fr_energy">   -828.29816675 </i>
    <i name="e_wo_entrp">   -828.19360218 </i>
    <i name="e_0_energy">   -828.24588447 </i>
   </energy>
  </scstep>
  <scstep>
   <time name="diag">   67.55   67.57</time>
   <time name="diis">  378.21  378.36</time>
   <time name="orth">   20.06   20.06</time>
   <time name="total">  480.73  480.91</time>
   <energy>
    <i name="e_fr_energy">   -828.29838663 </i>
    <i name="e_wo_entrp">   -828.19372906 </i>
    <i name="e_0_energy">   -828.24605784 </i>
   </energy>
  </scstep>
  <scstep>
   <time name="diag">   67.74   67.77</time>
   <time name="diis">  357.43  357.57</time>
   <time name="orth">   20.27   20.28</time>
   <time name="total">  460.36  460.54</time>
   <energy>
    <i name="e_fr_energy">   -828.29859075 </i>
    <i name="e_wo_entrp">   -828.19390212 </i>
    <i name="e_0_energy">   -828.24624643 </i>
   </energy>
  </scstep>
  <scstep>
   <time name="diag">   67.70   67.72</time>
   <time name="diis">  374.84  374.98</time>
   <time name="orth">   20.05   20.05</time>
   <time name="total">  477.53  477.71</time>
   <energy>
    <i name="e_fr_energy">   -828.29883392 </i>
    <i name="e_wo_entrp">   -828.19422613 </i>
    <i name="e_0_energy">   -828.24653003 </i>
   </energy>
  </scstep>
  <scstep>
   <time name="diag">   67.55   67.58</time>
   <time name="diis">  350.16  350.31</time>
   <time name="orth">   20.17   20.18</time>
   <time name="total">  452.91  453.10</time>
   <energy>
    <i name="e_fr_energy">   -828.29894687 </i>
    <i name="e_wo_entrp">   -828.19435716 </i>
    <i name="e_0_energy">   -828.24665201 </i>
   </energy>
  </scstep>
  <scstep>
   <time name="diag">   67.64   67.66</time>
   <time name="diis">  340.32  340.46</time>
   <time name="orth">   20.10   20.11</time>
   <time name="total">  443.03  443.21</time>
   <energy>
    <i name="e_fr_energy">   -828.29900341 </i>
    <i name="e_wo_entrp">   -828.19441061 </i>
    <i name="e_0_energy">   -828.24670701 </i>
   </energy>
  </scstep>
  <scstep>
   <time name="diag">   67.85   67.88</time>
   <time name="diis">  343.47  343.59</time>
   <time name="orth">   20.16   20.18</time>
   <time name="total">  446.46  446.64</time>
   <energy>
    <i name="e_fr_energy">   -828.29909133 </i>
    <i name="e_wo_entrp">   -828.19448253 </i>
    <i name="e_0_energy">   -828.24678693 </i>
   </energy>
  </scstep>
  <scstep>
   <time name="diag">   67.80   67.82</time>
   <time name="diis">  339.47  339.59</time>
   <time name="orth">   20.11   20.12</time>
   <time name="total">  442.38  442.54</time>
   <energy>
    <i name="e_fr_energy">   -828.29912027 </i>
    <i name="e_wo_entrp">   -828.19450873 </i>
    <i name="e_0_energy">   -828.24681450 </i>
   </energy>
  </scstep>
  <scstep>
   <time name="diag">   67.72   67.75</time>
   <time name="diis">  333.52  333.65</time>
   <time name="orth">   20.10   20.11</time>
   <time name="total">  436.31  436.49</time>
   <energy>
    <i name="e_fr_energy">   -828.29913519 </i>
    <i name="e_wo_entrp">   -828.19452608 </i>
    <i name="e_0_energy">   -828.24683063 </i>
   </energy>
  </scstep>
  <scstep>
   <time name="diag">   67.75   67.77</time>
   <time name="diis">  330.40  330.53</time>
   <time name="orth">   20.06   20.06</time>
   <time name="total">  433.27  433.44</time>
   <energy>
    <i name="e_fr_energy">   -828.29915033 </i>
    <i name="e_wo_entrp">   -828.19454624 </i>
    <i name="e_0_energy">   -828.24684828 </i>
   </energy>
  </scstep>
  <scstep>
   <time name="diag">   67.70   67.73</time>
   <time name="diis">  327.98  328.10</time>
   <time name="orth">   20.09   20.09</time>
   <time name="total">  430.75  430.90</time>
   <energy>
    <i name="e_fr_energy">   -828.29915999 </i>
    <i name="e_wo_entrp">   -828.19455428 </i>
    <i name="e_0_energy">   -828.24685714 </i>
   </energy>
  </scstep>
  <scstep>
   <time name="diag">   67.74   67.78</time>
   <time name="diis">  321.23  321.34</time>
   <time name="orth">   20.06   20.07</time>
   <time name="total">  424.02  424.19</time>
   <energy>
    <i name="e_fr_energy">   -828.29916210 </i>
    <i name="e_wo_entrp">   -828.19455492 </i>
    <i name="e_0_energy">   -828.24685851 </i>
   </energy>
  </scstep>
  <scstep>
   <time name="diag">   67.61   67.64</time>
   <time name="diis">  317.84  317.97</time>
   <time name="orth">   20.11   20.12</time>
   <time name="total">  407.24  407.41</time>
   <energy>
    <i name="alphaZ">    315.09161757 </i>
    <i name="ewald"> 106271.72894380 </i>
    <i name="hartreedc">-161077.16503868 </i>
    <i name="XCdc">   2669.39687770 </i>
    <i name="pawpsdc">  98656.67374548 </i>
    <i name="pawaedc">-101413.18759033 </i>
    <i name="eentropy">     -0.10460458 </i>
    <i name="bandstr">  -8393.88052118 </i>
    <i name="atom">  62143.14740716 </i>
    <i name="e_fr_energy">   -828.29916307 </i>
    <i name="e_wo_entrp">   -828.19455849 </i>
    <i name="e_0_energy">   -828.24686078 </i>
   </energy>
  </scstep>
  <structure>
   <crystal>
    <varray name="basis" >
     <v>      26.26650047       0.00000000       0.00000000 </v>
     <v>     -13.13288029      22.74974710       0.00000000 </v>
     <v>       0.00000000       0.00000000      20.20179939 </v>
    </varray>
    <i name="volume">  12071.71134534 </i>
    <varray name="rec_basis" >
     <v>       0.03807131       0.02197765       0.00000000 </v>
     <v>       0.00000000       0.04395653       0.00000000 </v>
     <v>       0.00000000       0.00000000       0.04950054 </v>
    </varray>
   </crystal>
   <varray name="positions" >
    <v>       0.02980496       0.30218825       0.50001190 </v>
    <v>       0.02984702       0.06202942       0.49999706 </v>
    <v>       0.27005327       0.30220454       0.50001425 </v>
    <v>       0.06091442       0.03095775       0.49999875 </v>
    <v>       0.30100426       0.27100923       0.49998900 </v>
    <v>       0.30101723       0.03100302       0.49998954 </v>
    <v>       0.36326080       0.30211553       0.49995164 </v>
    <v>       0.36326635       0.06214889       0.49995729 </v>
    <v>       0.60317546       0.30208670       0.50062705 </v>
    <v>       0.39437732       0.03103252       0.49996159 </v>
    <v>       0.63430456       0.27097832       0.50062390 </v>
    <v>       0.63434245       0.03103105       0.49996058 </v>
    <v>       0.69654801       0.30210167       0.50065734 </v>
    <v>       0.69655676       0.06213981       0.49995947 </v>
    <v>       0.93653048       0.30213892       0.49996078 </v>
    <v>       0.72765502       0.03100362       0.49999230 </v>
    <v>       0.96764862       0.27101999       0.49999162 </v>
    <v>       0.96771553       0.03095765       0.49999972 </v>
    <v>       0.02986284       0.63544604       0.49999470 </v>
    <v>       0.02987545       0.39543758       0.49999310 </v>
    <v>       0.26997658       0.63550906       0.49999956 </v>
    <v>       0.06083963       0.36425758       0.50001184 </v>
    <v>       0.30104625       0.60443529       0.49999687 </v>
    <v>       0.30109356       0.36426676       0.50001372 </v>
    <v>       0.36317889       0.63549390       0.49999863 </v>
    <v>       0.36323896       0.39544566       0.49999161 </v>
    <v>       0.60321983       0.63545630       0.49999105 </v>
    <v>       0.39437600       0.36433365       0.49995419 </v>
    <v>       0.63431974       0.60431219       0.49995903 </v>
    <v>       0.63431222       0.36435525       0.50063855 </v>
    <v>       0.69655679       0.63541359       0.49995997 </v>
    <v>       0.69659188       0.39550258       0.50065524 </v>
    <v>       0.93652371       0.63543146       0.49995677 </v>
    <v>       0.72768629       0.36434007       0.50065568 </v>
    <v>       0.96761975       0.60431070       0.49995976 </v>
    <v>       0.96763037       0.36433313       0.49996245 </v>
    <v>       0.02983389       0.96883150       0.49999616 </v>
    <v>       0.02981114       0.72863257       0.50001153 </v>
    <v>       0.27003772       0.96887546       0.50001385 </v>
    <v>       0.06084327       0.69758479       0.50001169 </v>
    <v>       0.30108383       0.93783161       0.50001336 </v>
    <v>       0.30105514       0.69762667       0.49999701 </v>
    <v>       0.36322143       0.96880249       0.49999586 </v>
    <v>       0.36318737       0.72869191       0.49999912 </v>
    <v>       0.60323083       0.96880671       0.49999214 </v>
    <v>       0.39425482       0.69762621       0.49999650 </v>
    <v>       0.63438990       0.93782480       0.50001105 </v>
    <v>       0.63440573       0.69758345       0.50001342 </v>
    <v>       0.69648066       0.96886790       0.50001161 </v>
    <v>       0.69648394       0.72861393       0.50001390 </v>
    <v>       0.93663926       0.96884142       0.49999695 </v>
    <v>       0.72766969       0.69766451       0.49999213 </v>
    <v>       0.96769640       0.93775509       0.49999892 </v>
    <v>       0.96766400       0.69765560       0.49998838 </v>
    <v>       0.65607527       0.33465825       0.74864599 </v>
    <v>       0.06789781       0.13814886       0.49997588 </v>
    <v>       0.19393215       0.26414799       0.49999625 </v>
    <v>       0.13704584       0.06902603       0.49999856 </v>
    <v>       0.26301865       0.19497667       0.49996142 </v>
    <v>       0.26301337       0.06905636       0.49995515 </v>
    <v>       0.40135176       0.26412065       0.49990235 </v>
    <v>       0.40135989       0.13823431       0.49989459 </v>
    <v>       0.52742416       0.26425423       0.50018843 </v>
    <v>       0.47045991       0.06918534       0.49989570 </v>
    <v>       0.59640589       0.19519768       0.50012465 </v>
    <v>       0.59635570       0.06914946       0.49991572 </v>
    <v>       0.73444316       0.26418171       0.50009226 </v>
    <v>       0.73451702       0.13823297       0.49990914 </v>
    <v>       0.86042179       0.26417549       0.49991049 </v>
    <v>       0.80370196       0.06906489       0.49996637 </v>
    <v>       0.92958716       0.19497931       0.49996527 </v>
    <v>       0.92963725       0.06900067       0.49999791 </v>
    <v>       0.06782482       0.59735480       0.49996786 </v>
    <v>       0.06783958       0.47146255       0.49996517 </v>
    <v>       0.19384036       0.59745051       0.49999858 </v>
    <v>       0.13696564       0.40233265       0.49999475 </v>
    <v>       0.26295357       0.52829241       0.49997620 </v>
    <v>       0.26303046       0.40230254       0.49999690 </v>
    <v>       0.40120046       0.59740347       0.49999987 </v>
    <v>       0.40127225       0.47146276       0.49996285 </v>
    <v>       0.52719462       0.59740559       0.49995848 </v>
    <v>       0.47046916       0.40229789       0.49990465 </v>
    <v>       0.59635350       0.52819788       0.49989600 </v>
    <v>       0.59640568       0.40223042       0.50012067 </v>
    <v>       0.73448205       0.59723582       0.49989609 </v>
    <v>       0.73446091       0.47127919       0.50016570 </v>
    <v>       0.86042459       0.59731790       0.49991312 </v>
    <v>       0.80352197       0.40227414       0.50008947 </v>
    <v>       0.92947391       0.52821520       0.49990876 </v>
    <v>       0.92948337       0.40226954       0.49991359 </v>
    <v>       0.06788396       0.93072166       0.49997486 </v>
    <v>       0.06783400       0.80472684       0.49999800 </v>
    <v>       0.19393062       0.93084981       0.49999506 </v>
    <v>       0.13696062       0.73563927       0.49999569 </v>
    <v>       0.26302150       0.86173815       0.49999491 </v>
    <v>       0.26295959       0.73567507       0.49997784 </v>
    <v>       0.40124387       0.93079140       0.49996233 </v>
    <v>       0.40122266       0.80480999       0.49999815 </v>
    <v>       0.52719318       0.93084046       0.49996325 </v>
    <v>       0.47037223       0.73569212       0.49997596 </v>
    <v>       0.59632278       0.86172349       0.49999634 </v>
    <v>       0.59633314       0.73559732       0.49999586 </v>
    <v>       0.73451651       0.93078330       0.49999652 </v>
    <v>       0.73452812       0.80471363       0.49999579 </v>
    <v>       0.86051385       0.93078638       0.49997659 </v>
    <v>       0.80369543       0.73563161       0.49995936 </v>
    <v>       0.92962935       0.86164402       0.49999921 </v>
    <v>       0.92958738       0.73561778       0.49995978 </v>
    <v>       0.06782153       0.26408928       0.49999493 </v>
    <v>       0.72144433       0.31736043       0.70470614 </v>
    <v>       0.67109360       0.41884954       0.71179701 </v>
    <v>       0.56981433       0.26648659       0.71643373 </v>
    <v>       0.66072975       0.33525937       0.85637316 </v>
    <v>       0.49898298       0.33319727       0.50116126 </v>
    <v>       0.99871892       0.16652881       0.50004281 </v>
    <v>       0.83204139       0.16664596       0.50021506 </v>
    <v>       0.83179705       0.33319993       0.50120956 </v>
    <v>       0.33204764       0.49984044       0.50004443 </v>
    <v>       0.16541858       0.49990300       0.50004214 </v>
    <v>       0.16539700       0.66655421       0.50004107 </v>
    <v>       0.66538434       0.49957043       0.50152001 </v>
    <v>       0.49882940       0.49984926       0.50024955 </v>
    <v>       0.49874271       0.66654898       0.50004672 </v>
    <v>       0.99859546       0.49978963       0.50020338 </v>
    <v>       0.83182385       0.49966778       0.50097701 </v>
    <v>       0.83199280       0.66641651       0.50024564 </v>
    <v>       0.33204970       0.83319539       0.50004536 </v>
    <v>       0.16542330       0.83324993       0.50004149 </v>
    <v>       0.16541239       0.99988234       0.50004937 </v>
    <v>       0.66538182       0.83318667       0.50004119 </v>
    <v>       0.49876963       0.83325475       0.50004268 </v>
    <v>       0.49878459       0.00000047       0.50021525 </v>
    <v>       0.99871742       0.83317891       0.50004455 </v>
    <v>       0.83208443       0.83323879       0.50004684 </v>
    <v>       0.83205877       0.99987963       0.50004142 </v>
    <v>       0.33218440       0.16658317       0.50026914 </v>
    <v>       0.16543477       0.16659357       0.50004664 </v>
    <v>       0.16540187       0.33321923       0.50004045 </v>
    <v>       0.66541539       0.16678633       0.50096592 </v>
    <v>       0.49899293       0.16686558       0.50136546 </v>
   </varray>
  </structure>
  <varray name="forces" >
   <v>      -0.01058686      -0.08156592      -0.00207114 </v>
   <v>       0.00449752       0.00562266      -0.00014297 </v>
   <v>       0.00172949      -0.08990238      -0.00246750 </v>
   <v>       0.00750172       0.00765479      -0.00009616 </v>
   <v>       0.08247447       0.07773793      -0.00111594 </v>
   <v>       0.09102273       0.04337407      -0.00091390 </v>
   <v>      -0.03935635       0.01365055       0.00255555 </v>
   <v>      -0.00386772      -0.04041798       0.00267127 </v>
   <v>       0.03247352       0.04500411       0.01638394 </v>
   <v>      -0.04604094      -0.00740932       0.00274052 </v>
   <v>       0.00582303       0.04064935       0.01760629 </v>
   <v>       0.02678661      -0.00853043       0.00198034 </v>
   <v>      -0.01101105       0.01155151       0.00971795 </v>
   <v>      -0.00508534      -0.03659662       0.00185782 </v>
   <v>       0.02713696       0.00406581       0.00240240 </v>
   <v>      -0.09127619       0.03080859      -0.00110309 </v>
   <v>      -0.06423641       0.07181639      -0.00112463 </v>
   <v>      -0.01220361       0.01132551      -0.00021884 </v>
   <v>      -0.09450885      -0.03918704      -0.00158890 </v>
   <v>      -0.07765074      -0.07570640      -0.00133564 </v>
   <v>      -0.00152383      -0.01854360      -0.00015129 </v>
   <v>       0.00396897       0.07763958      -0.00193502 </v>
   <v>      -0.00969202      -0.01396203      -0.00017165 </v>
   <v>       0.00314514       0.07774838      -0.00210418 </v>
   <v>       0.00278557      -0.00647083      -0.00010087 </v>
   <v>       0.08016289      -0.07941046      -0.00149486 </v>
   <v>       0.11086869      -0.04429135      -0.00136530 </v>
   <v>      -0.03336032      -0.01869859       0.00260091 </v>
   <v>       0.01710141       0.02853182       0.00318179 </v>
   <v>       0.04652324      -0.01252117       0.01755629 </v>
   <v>      -0.04106031       0.01074953       0.00306643 </v>
   <v>      -0.01191371      -0.06075742       0.01335463 </v>
   <v>       0.03401313       0.00703204       0.00198032 </v>
   <v>      -0.02804040       0.00360170       0.01390243 </v>
   <v>       0.00082303       0.04168633       0.00201364 </v>
   <v>       0.03806022      -0.01381092       0.00245437 </v>
   <v>       0.01983530      -0.01890391      -0.00013950 </v>
   <v>      -0.06677206       0.02440467      -0.00206851 </v>
   <v>      -0.05386015       0.03367974      -0.00255908 </v>
   <v>       0.06237228      -0.03542519      -0.00160455 </v>
   <v>       0.04963997      -0.02870636      -0.00186853 </v>
   <v>      -0.01928997       0.01123174      -0.00008838 </v>
   <v>      -0.01525025       0.09591951      -0.00179704 </v>
   <v>      -0.00364507       0.00914273      -0.00015967 </v>
   <v>       0.02373910       0.09345008      -0.00131863 </v>
   <v>       0.00334065       0.00286523      -0.00018897 </v>
   <v>      -0.05302693      -0.02571144      -0.00172435 </v>
   <v>      -0.06016163      -0.03811887      -0.00247762 </v>
   <v>       0.05671800       0.02640626      -0.00181871 </v>
   <v>       0.06178982       0.04062904      -0.00247737 </v>
   <v>       0.00100256      -0.01828641      -0.00014154 </v>
   <v>      -0.02012611      -0.12095989      -0.00131476 </v>
   <v>      -0.00084510       0.00322202      -0.00013267 </v>
   <v>       0.02135505      -0.09158093      -0.00086076 </v>
   <v>       0.00144346       0.02036735       0.11955496 </v>
   <v>      -0.00287754      -0.00548147      -0.00075304 </v>
   <v>      -0.00453158       0.00565223       0.00091271 </v>
   <v>      -0.01152553      -0.00558077       0.00152316 </v>
   <v>      -0.00986173      -0.01316562      -0.00036035 </v>
   <v>      -0.01081044      -0.00286705      -0.00081331 </v>
   <v>      -0.02285106       0.01470423       0.00320934 </v>
   <v>      -0.00300086      -0.03225559       0.00473456 </v>
   <v>       0.00371556      -0.00511432       0.02060885 </v>
   <v>      -0.01717465      -0.01644261       0.00464667 </v>
   <v>      -0.00077968       0.00374503       0.01937302 </v>
[...]
    <v>       0.26996655       0.63549510       0.49999953 </v>
    <v>       0.06083569       0.36429199       0.49997963 </v>
    <v>       0.30104989       0.60443060       0.49999314 </v>
    <v>       0.30110021       0.36429962       0.49997749 </v>
    <v>       0.36318708       0.63549747       0.49999964 </v>
    <v>       0.36325673       0.39539219       0.49997631 </v>
    <v>       0.60326263       0.63540843       0.49997672 </v>
    <v>       0.39429174       0.36427519       0.49999126 </v>
    <v>       0.63438033       0.60437781       0.50000763 </v>
    <v>       0.63431624       0.36431919       0.50095284 </v>
    <v>       0.69650166       0.63542978       0.50000776 </v>
    <v>       0.69652913       0.39543635       0.50093363 </v>
    <v>       0.93658524       0.63543665       0.49998687 </v>
    <v>       0.72764384       0.36433397       0.50090363 </v>
    <v>       0.96763734       0.60437577       0.49998688 </v>
    <v>       0.96762366       0.36427844       0.49999896 </v>
    <v>       0.02983950       0.96882726       0.49999272 </v>
    <v>       0.02976190       0.72863210       0.49998199 </v>
    <v>       0.27002825       0.96889381       0.49997748 </v>
    <v>       0.06083410       0.69755783       0.49998203 </v>
    <v>       0.30111121       0.93782394       0.49997772 </v>
    <v>       0.30103167       0.69762980       0.49999418 </v>
    <v>       0.36326551       0.96888499       0.49997793 </v>
    <v>       0.36316983       0.72869118       0.49999910 </v>
    <v>       0.60326832       0.96887741       0.49997778 </v>
    <v>       0.39424221       0.69761918       0.49999252 </v>
    <v>       0.63436551       0.93782160       0.49998221 </v>
    <v>       0.63435217       0.69755246       0.49997349 </v>
    <v>       0.69650996       0.96888845       0.49998308 </v>
    <v>       0.69649274       0.72861228       0.49997408 </v>
    <v>       0.93663162       0.96882942       0.49999329 </v>
    <v>       0.72760182       0.69757182       0.49997774 </v>
    <v>       0.96769552       0.93775141       0.49999951 </v>
    <v>       0.96761029       0.69757475       0.49997722 </v>
    <v>       0.65593411       0.33456595       0.74752957 </v>
    <v>       0.06787270       0.13812325       0.49996207 </v>
    <v>       0.19398727       0.26413215       0.50000995 </v>
    <v>       0.13702433       0.06902053       0.50002622 </v>
    <v>       0.26306709       0.19502114       0.49995325 </v>
    <v>       0.26305247       0.06907605       0.49993933 </v>
    <v>       0.40135429       0.26411298       0.49996318 </v>
    <v>       0.40132477       0.13823685       0.49998044 </v>
    <v>       0.52746643       0.26423933       0.50056805 </v>
    <v>       0.47044100       0.06914339       0.49997996 </v>
    <v>       0.59644482       0.19525487       0.50048321 </v>
    <v>       0.59632785       0.06913882       0.49996837 </v>
    <v>       0.73445344       0.26423227       0.50041433 </v>
    <v>       0.73452829       0.13822396       0.49995558 </v>
    <v>       0.86042373       0.26411306       0.49998695 </v>
    <v>       0.80364597       0.06906998       0.49995550 </v>
    <v>       0.92958086       0.19501944       0.49995055 </v>
    <v>       0.92963267       0.06900803       0.50002159 </v>
    <v>       0.06780355       0.59736964       0.49995862 </v>
    <v>       0.06777017       0.47141246       0.49995023 </v>
    <v>       0.19384425       0.59743124       0.50002133 </v>
    <v>       0.13689557       0.40231835       0.50000540 </v>
    <v>       0.26296153       0.52830473       0.49996177 </v>
    <v>       0.26307085       0.40230402       0.50001170 </v>
    <v>       0.40123014       0.59743040       0.50002996 </v>
    <v>       0.40126404       0.47140812       0.49995344 </v>
    <v>       0.52723931       0.59737280       0.49994322 </v>
    <v>       0.47045524       0.40232198       0.49996427 </v>
    <v>       0.59631646       0.52818620       0.49999407 </v>
    <v>       0.59643159       0.40222992       0.50050247 </v>
    <v>       0.73455583       0.59729861       0.49999292 </v>
    <v>       0.73442686       0.47122258       0.50055532 </v>
    <v>       0.86042311       0.59731938       0.49996380 </v>
    <v>       0.80345665       0.40223645       0.50042364 </v>
    <v>       0.92952073       0.52821801       0.49995599 </v>
    <v>       0.92951994       0.40231683       0.49999429 </v>
    <v>       0.06790901       0.93075615       0.49995942 </v>
    <v>       0.06777437       0.80466468       0.50001418 </v>
    <v>       0.19398370       0.93086938       0.50000631 </v>
    <v>       0.13688836       0.73559079       0.50000967 </v>
    <v>       0.26306953       0.86179506       0.50000552 </v>
    <v>       0.26295963       0.73568009       0.49996612 </v>
    <v>       0.40129035       0.93087667       0.49994892 </v>
    <v>       0.40120321       0.80479523       0.50002296 </v>
    <v>       0.52723428       0.93087555       0.49995033 </v>
    <v>       0.47034060       0.73567822       0.49996181 </v>
    <v>       0.59633471       0.86177751       0.50001107 </v>
    <v>       0.59633716       0.73556064       0.50000644 </v>
    <v>       0.73453564       0.93084893       0.50001152 </v>
    <v>       0.73449891       0.80464691       0.50000547 </v>
    <v>       0.86052662       0.93076839       0.49996403 </v>
    <v>       0.80363271       0.73557097       0.49994556 </v>
    <v>       0.92963406       0.86164820       0.50002642 </v>
    <v>       0.92956950       0.73557670       0.49994575 </v>
    <v>       0.06780921       0.26412776       0.50000658 </v>
    <v>       0.72120151       0.31752345       0.70398938 </v>
    <v>       0.67103210       0.41836788       0.71104167 </v>
    <v>       0.57001562       0.26671249       0.71530530 </v>
    <v>       0.66103359       0.33546676       0.85356752 </v>
    <v>       0.49879648       0.33321220       0.50137462 </v>
    <v>       0.99871087       0.16657185       0.50006599 </v>
    <v>       0.83202189       0.16661168       0.50029899 </v>
    <v>       0.83208774       0.33321446       0.50130775 </v>
    <v>       0.33211397       0.49987893       0.50006807 </v>
    <v>       0.16535993       0.49987868       0.50006495 </v>
    <v>       0.16537525       0.66651598       0.50006341 </v>
    <v>       0.66543434       0.49986937       0.50167028 </v>
    <v>       0.49880083       0.49982331       0.50035940 </v>
    <v>       0.49876979       0.66651117       0.50007155 </v>
    <v>       0.99863005       0.49983222       0.50028616 </v>
    <v>       0.83206632       0.49988499       0.50112836 </v>
    <v>       0.83202480       0.66642463       0.50034234 </v>
    <v>       0.33211056       0.83327440       0.50007029 </v>
    <v>       0.16540427       0.83322590       0.50008169 </v>
    <v>       0.16546854       0.99991942       0.50007557 </v>
    <v>       0.66540706       0.83321835       0.50008216 </v>
    <v>       0.49875158       0.83327266       0.50006419 </v>
    <v>       0.49882459       0.00001837       0.50030740 </v>
    <v>       0.99870527       0.83317596       0.50006752 </v>
    <v>       0.83205621       0.83317284       0.50007287 </v>
    <v>       0.83207723       0.99991419       0.50006355 </v>
    <v>       0.33219139       0.16662081       0.50036746 </v>
    <v>       0.16545446       0.16656971       0.50007201 </v>
    <v>       0.16542679       0.33321545       0.50008044 </v>
    <v>       0.66543223       0.16658903       0.50113303 </v>
    <v>       0.49878088       0.16660044       0.50151831 </v>
   </varray>
  </structure>
  <varray name="forces" >
   <v>      -0.03927019      -0.01093197      -0.00046080 </v>
   <v>       0.00857799      -0.00893417      -0.00015511 </v>
   <v>       0.02936078      -0.01388561      -0.00048631 </v>
   <v>      -0.00291473       0.00235131       0.00012627 </v>
   <v>      -0.00860314       0.03955622       0.00013322 </v>
   <v>       0.02261186      -0.01397644       0.00011356 </v>
   <v>       0.04478760      -0.05767653       0.00047888 </v>
   <v>      -0.02003019       0.06172559       0.00080171 </v>
   <v>      -0.00324278      -0.00368146       0.01716759 </v>
   <v>       0.05286452       0.02313336       0.00098628 </v>
   <v>       0.02068897       0.01794138       0.01648857 </v>
   <v>      -0.05832053       0.02120400       0.00041793 </v>
   <v>       0.00436681       0.01224343       0.01698226 </v>
   <v>       0.01853868       0.05340629       0.00028689 </v>
   <v>      -0.04289840      -0.05968648       0.00073026 </v>
   <v>      -0.03096325      -0.02109727       0.00001136 </v>
   <v>       0.01121072       0.04377753       0.00011901 </v>
   <v>       0.00029678       0.00955768       0.00007001 </v>
   <v>      -0.02962116       0.01254113       0.00009173 </v>
   <v>       0.00592032      -0.04653712       0.00012881 </v>
   <v>       0.00212518      -0.00518067       0.00004984 </v>
   <v>      -0.02234019       0.00819809      -0.00052641 </v>
   <v>      -0.01163778      -0.00831457      -0.00014553 </v>
   <v>       0.03545341       0.00126090      -0.00058811 </v>
   <v>      -0.00235159      -0.01273357       0.00016356 </v>
   <v>      -0.00692767      -0.04281893       0.00018696 </v>
   <v>       0.03447305       0.01639230       0.00028495 </v>
   <v>       0.05223972       0.05460120       0.00055409 </v>
   <v>      -0.00967197      -0.08399199       0.00112645 </v>
   <v>      -0.01219835       0.02254300       0.01778276 </v>
   <v>       0.06916800      -0.02988080       0.00108447 </v>
   <v>       0.01286129       0.00692306       0.01721642 </v>
   <v>      -0.06540995      -0.02287792       0.00024349 </v>
   <v>       0.00947536      -0.00705033       0.01625750 </v>
   <v>       0.02554288      -0.05811379       0.00032971 </v>
   <v>      -0.03070028       0.04912320       0.00081957 </v>
   <v>       0.00966658      -0.00909254      -0.00015741 </v>
   <v>      -0.01647000      -0.02902537      -0.00036316 </v>
   <v>       0.01423083       0.02752385      -0.00050582 </v>
   <v>      -0.00643771      -0.02189464      -0.00051328 </v>
   <v>       0.00950717       0.02931335      -0.00071724 </v>
   <v>      -0.00426467      -0.00085887      -0.00014790 </v>
   <v>      -0.03463604       0.00914952       0.00021816 </v>
   <v>      -0.00296592      -0.00037897       0.00010711 </v>
   <v>       0.03428741       0.01355050       0.00006723 </v>
   <v>      -0.00432438       0.01118920      -0.00011849 </v>
   <v>      -0.01441537       0.02300528      -0.00046550 </v>
   <v>       0.01700763      -0.03049279      -0.00057335 </v>
   <v>      -0.00685878       0.02336273      -0.00045574 </v>
   <v>       0.01841784      -0.01714659      -0.00061573 </v>
   <v>       0.00171245      -0.00989813      -0.00013479 </v>
   <v>      -0.02954496      -0.01840953       0.00023380 </v>
   <v>       0.00546683       0.00543370       0.00013219 </v>
   <v>       0.03315091      -0.00810044       0.00002736 </v>
   <v>      -0.00053419      -0.00490214      -0.07612902 </v>
   <v>      -0.00179667       0.01192519      -0.00089161 </v>
   <v>      -0.03342238      -0.00835933       0.00000790 </v>
   <v>      -0.00222948      -0.00127897       0.00144463 </v>
   <v>      -0.00433119      -0.02279672      -0.00066247 </v>
   <v>      -0.01354922       0.00287595      -0.00103560 </v>
   <v>      -0.04583233       0.03263051       0.00380182 </v>
   <v>       0.00543492      -0.05568383       0.00475638 </v>
   <v>      -0.01686477      -0.00761380       0.02180176 </v>
   <v>      -0.03819528      -0.01901099       0.00451997 </v>
   <v>      -0.00144023      -0.02903323       0.01997011 </v>
   <v>       0.04517864      -0.02293402       0.00311373 </v>
   <v>      -0.00429959      -0.00063848       0.01646459 </v>
   <v>      -0.00400850      -0.04629903       0.00277203 </v>
   <v>       0.04055029       0.03132051       0.00399106 </v>
   <v>       0.02624190       0.00891062      -0.00079535 </v>
   <v>       0.00423075      -0.02392470      -0.00100131 </v>
   <v>      -0.00317271       0.00045205       0.00117093 </v>
   <v>       0.01864909      -0.00496896      -0.00081218 </v>
   <v>       0.00534735       0.03386678      -0.00102848 </v>
   <v>       0.00458301       0.00360364       0.00110956 </v>
   <v>       0.03171361       0.01087918       0.00001354 </v>
   <v>       0.00263600       0.00512461      -0.00090720 </v>
   <v>      -0.04072905       0.01549939       0.00007088 </v>
   <v>       0.00356934      -0.00137846       0.00150973 </v>
   <v>      -0.00400692       0.03547232      -0.00069462 </v>
   <v>      -0.03388593      -0.01134196      -0.00107402 </v>
   <v>      -0.04566307      -0.03082913       0.00373871 </v>
   <v>       0.00361604       0.07546590       0.00535542 </v>
   <v>       0.00390813      -0.00631829       0.02146711 </v>
   <v>      -0.06342249       0.03134050       0.00521999 </v>
   <v>      -0.00141839      -0.00255164       0.02109510 </v>
   <v>       0.04569357       0.02419103       0.00297242 </v>
   <v>      -0.00679824      -0.00428669       0.01719879 </v>
   <v>      -0.00414631       0.05131094       0.00269620 </v>
   <v>       0.03210716      -0.02422524       0.00416715 </v>
   <v>      -0.00941614       0.00355678      -0.00096545 </v>
   <v>       0.00674017       0.04189293       0.00032029 </v>
   <v>      -0.02841107      -0.02400453      -0.00002609 </v>
   <v>       0.02726277       0.02378131       0.00020715 </v>
   <v>      -0.00444137      -0.04171005      -0.00007866 </v>
   <v>      -0.00003624       0.00135375      -0.00076010 </v>
   <v>       0.02486322      -0.02067224      -0.00102347 </v>
   <v>       0.00150539       0.00284209       0.00122799 </v>
   <v>      -0.02547785      -0.01882902      -0.00095800 </v>
   <v>       0.01358379       0.00668673      -0.00094039 </v>
   <v>       0.00700625      -0.03729762       0.00027104 </v>
   <v>      -0.03964417       0.03178954      -0.00017414 </v>
   <v>       0.02071850      -0.02115983       0.00030671 </v>
   <v>      -0.00752819       0.04142250      -0.00024997 </v>
   <v>      -0.01047101      -0.00341558      -0.00081348 </v>
   <v>       0.02337891       0.02214527      -0.00097918 </v>
   <v>      -0.00074548      -0.00144529       0.00132889 </v>
   <v>      -0.02102970       0.01676670      -0.00093127 </v>
   <v>       0.03294816      -0.01051534       0.00007571 </v>
   <v>       0.08399474      -0.01887714      -0.10593685 </v>
   <v>      -0.03517089       0.08334490      -0.10027967 </v>
   <v>      -0.06051611      -0.06358862      -0.10119991 </v>
   <v>       0.01524497       0.00544430       0.02529520 </v>
   <v>       0.02396116      -0.00037101       0.01103968 </v>
   <v>       0.00066785      -0.00299504       0.00079417 </v>
   <v>       0.00145335       0.00016220       0.00327577 </v>
   <v>      -0.02769037      -0.00038899       0.00859344 </v>
   <v>      -0.00004751      -0.00086620       0.00101075 </v>
   <v>       0.00001143       0.00090737       0.00075156 </v>
   <v>      -0.00094558      -0.00027143       0.00091351 </v>
   <v>       0.01429747      -0.02419760       0.01091098 </v>
   <v>       0.00061908       0.00030559       0.00441553 </v>
   <v>      -0.00254515      -0.00105897       0.00091952 </v>
   <v>       0.00113079      -0.00121974       0.00320618 </v>
   <v>      -0.01245261      -0.02159226       0.00929400 </v>
   <v>      -0.00100381       0.00048780       0.00385225 </v>
   <v>       0.00053306      -0.00092456       0.00086876 </v>
   <v>       0.00022444       0.00055123       0.00092050 </v>
   <v>      -0.00193968       0.00114090       0.00093145 </v>
   <v>      -0.00006972      -0.00201679       0.00089641 </v>
   <v>      -0.00080933       0.00034696       0.00089143 </v>
   <v>      -0.00241129      -0.00033302       0.00370349 </v>
   <v>      -0.00042553      -0.00134361       0.00100057 </v>
   <v>       0.00181934      -0.00025949       0.00093052 </v>
   <v>      -0.00023719       0.00105561       0.00090192 </v>
   <v>       0.00087675      -0.00195363       0.00413901 </v>
   <v>       0.00046102      -0.00043181       0.00102843 </v>
   <v>      -0.00143026       0.00038579       0.00087982 </v>
   <v>      -0.01038450       0.02053752       0.00936520 </v>
   <v>       0.01127374       0.02199776       0.01056190 </v>
  </varray>
  <varray name="stress" >
   <v>      -0.84792583       0.00495921       0.00012464 </v>
   <v>       0.00495915      -0.87910264       0.00127502 </v>
   <v>       0.00012462       0.00127502      -0.37298899 </v>
  </varray>
  <energy>
   <i name="e_fr_energy">   -837.34038037 </i>
   <i name="e_wo_entrp">   -837.28801222 </i>
   <i name="e_0_energy">     -0.10473630 </i>
  </energy>
  <time name="totalsc"> 6774.40 6776.94</time>
 </calculation>
 <calculation>
  <scstep>
   <time name="dav">  848.98  849.32</time>
   <time name="total">  863.80  864.15</time>
   <energy>
    <i name="alphaZ">    315.09161757 </i>
    <i name="ewald"> 106355.17264145 </i>
    <i name="hartreedc">-161162.44282382 </i>
    <i name="XCdc">   2669.61973647 </i>
    <i name="pawpsdc">  98705.30090926 </i>
    <i name="pawaedc">-101461.81076644 </i>
    <i name="eentropy">     -0.10515196 </i>
    <i name="bandstr">  -8392.28454693 </i>
    <i name="atom">  62143.14740716 </i>
    <i name="e_fr_energy">   -828.31097725 </i>
    <i name="e_wo_entrp">   -828.20582529 </i>
    <i name="e_0_energy">   -828.25840127 </i>
   </energy>
  </scstep>
  <scstep>
   <time name="diag">   67.77   67.79</time>
   <time name="diis">  622.54  622.78</time>
   <time name="orth">   20.14   20.15</time>
   <time name="total">  725.15  725.42</time>
   <energy>
    <i name="e_fr_energy">   -828.31372979 </i>
    <i name="e_wo_entrp">   -828.21111296 </i>
    <i name="e_0_energy">   -828.26242137 </i>
   </energy>
  </scstep>
  <scstep>
   <time name="diag">   67.83   67.86</time>
   <time name="diis">  686.49  686.76</time>
   <time name="orth">   20.14   20.14</time>
   <time name="total">  789.19  789.50</time>
   <energy>
    <i name="e_fr_energy">   -828.31433802 </i>
    <i name="e_wo_entrp">   -828.20390336 </i>
    <i name="e_0_energy">   -828.25912069 </i>
   </energy>
  </scstep>
  <scstep>
   <time name="diag">   67.79   67.81</time>
   <time name="diis">  571.40  571.62</time>
   <time name="orth">   20.15   20.15</time>
   <time name="total">  674.05  674.31</time>
   <energy>
    <i name="e_fr_energy">   -828.31378425 </i>
    <i name="e_wo_entrp">   -828.21012119 </i>
    <i name="e_0_energy">   -828.26195272 </i>
   </energy>
  </scstep>
  <scstep>
   <time name="diag">   67.87   67.90</time>
   <time name="diis">  574.06  574.28</time>
   <time name="orth">   20.11   20.12</time>
   <time name="total">  676.74  677.01</time>
   <energy>
    <i name="e_fr_energy">   -828.31370459 </i>
    <i name="e_wo_entrp">   -828.20931443 </i>
    <i name="e_0_energy">   -828.26150951 </i>
   </energy>
  </scstep>
  <scstep>
   <time name="diag">   67.78   67.81</time>
   <time name="diis">  571.28  571.51</time>
   <time name="orth">   20.09   20.10</time>
   <time name="total">  673.89  674.15</time>
   <energy>
    <i name="e_fr_energy">   -828.31371063 </i>
    <i name="e_wo_entrp">   -828.20844123 </i>
    <i name="e_0_energy">   -828.26107593 </i>
   </energy>
  </scstep>
  <scstep>
   <time name="diag">   67.88   67.92</time>
   <time name="diis">  580.67  580.89</time>
   <time name="orth">   20.16   20.16</time>
   <time name="total">  683.43  683.70</time>
   <energy>
    <i name="e_fr_energy">   -828.31368551 </i>
    <i name="e_wo_entrp">   -828.20897183 </i>
    <i name="e_0_energy">   -828.26132867 </i>
   </energy>
  </scstep>
  <scstep>
   <time name="diag">   67.94   67.97</time>
