 running on   32 total cores
 distrk:  each k-point on   32 cores,    1 groups
 distr:  one band on   32 cores,    1 groups
 using from now: INCAR     
 vasp.5.4.4.18Apr17-6-g9f103f2a35 (build Apr 28 2017 10:40:22) complex          
  
 POSCAR found type information on POSCAR  C  Al S  Cl Cu
 POSCAR found :  5 types and     140 ions
 scaLAPACK will be used

 ----------------------------------------------------------------------------- 
|                                                                             |
|           W    W    AA    RRRRR   N    N  II  N    N   GGGG   !!!           |
|           W    W   A  A   R    R  NN   N  II  NN   N  G    G  !!!           |
|           W    W  A    A  R    R  N N  N  II  N N  N  G       !!!           |
|           W WW W  AAAAAA  RRRRR   N  N N  II  N  N N  G  GGG   !            |
|           WW  WW  A    A  R   R   N   NN  II  N   NN  G    G                |
|           W    W  A    A  R    R  N    N  II  N    N   GGGG   !!!           |
|                                                                             |
|      For optimal performance we recommend to set                            |
|        NCORE= 4 - approx SQRT( number of cores)                             |
|      NCORE specifies how many cores store one orbital (NPAR=cpu/NCORE).     |
|      This setting can  greatly improve the performance of VASP for DFT.     |
|      The default,   NCORE=1            might be grossly inefficient         |
|      on modern multi-core architectures or massively parallel machines.     |
|      Do your own testing !!!!                                               |
|      Unfortunately you need to use the default for GW and RPA calculations. |
|      (for HF NCORE is supported but not extensively tested yet)             |
|                                                                             |
 ----------------------------------------------------------------------------- 


 ----------------------------------------------------------------------------- 
|                                                                             |
|  ADVICE TO THIS USER RUNNING 'VASP/VAMP'   (HEAR YOUR MASTER'S VOICE ...):  |
|                                                                             |
|      You have a (more or less) 'large supercell' and for larger cells       |
|      it might be more efficient to use real space projection opertators     |
|      So try LREAL= Auto  in the INCAR   file.                               |
|      Mind:          For very  accurate calculation you might also keep the  |
|      reciprocal projection scheme          (i.e. LREAL=.FALSE.)             |
|                                                                             |
 ----------------------------------------------------------------------------- 

 LDA part: xc-table for Pade appr. of Perdew
 POSCAR, INCAR and KPOINTS ok, starting setup
 FFT: planning ...
 WAVECAR not read
 entering main loop
       N       E                     dE             d eps       ncg     rms          rms(c)
DAV:   1     0.782923770554E+04    0.78292E+04   -0.27143E+05 12040   0.105E+03
DAV:   2     0.100752332932E+04   -0.68217E+04   -0.58547E+04 14752   0.253E+02
DAV:   3    -0.739222756470E+03   -0.17467E+04   -0.17162E+04 17456   0.144E+02
DAV:   4    -0.903664842187E+03   -0.16444E+03   -0.15836E+03 19280   0.615E+01
DAV:   5    -0.910027945755E+03   -0.63631E+01   -0.59282E+01 20016   0.138E+01    0.126E+02
RMM:   6    -0.863391226782E+03    0.46637E+02   -0.28850E+03 13997   0.115E+02    0.107E+02
RMM:   7    -0.589671496414E+03    0.27372E+03   -0.67942E+02 12149   0.644E+01    0.491E+01
RMM:   8    -0.651527428014E+03   -0.61856E+02   -0.44735E+02 13269   0.416E+01    0.553E+01
RMM:   9    -0.605935871840E+03    0.45592E+02   -0.46165E+01 12902   0.165E+01    0.257E+01
RMM:  10    -0.639451648880E+03   -0.33516E+02   -0.27743E+01 12198   0.126E+01    0.179E+01
RMM:  11    -0.691289387951E+03   -0.51838E+02   -0.30705E+01 12344   0.101E+01    0.149E+01
RMM:  12    -0.732820834316E+03   -0.41531E+02   -0.20701E+01 12510   0.571E+00    0.978E+00
RMM:  13    -0.778440151289E+03   -0.45619E+02   -0.32832E+01 12806   0.732E+00    0.888E+00
RMM:  14    -0.792084785969E+03   -0.13645E+02   -0.78825E+00 12813   0.436E+00    0.101E+01
RMM:  15    -0.800369231435E+03   -0.82844E+01   -0.36082E+00 12513   0.216E+00    0.812E+00
RMM:  16    -0.810854733861E+03   -0.10486E+02   -0.54514E+00 12086   0.357E+00    0.598E+00
RMM:  17    -0.813009937192E+03   -0.21552E+01   -0.12253E+00 13805   0.140E+00    0.427E+00
RMM:  18    -0.818405448251E+03   -0.53955E+01   -0.21593E+00 12286   0.166E+00    0.283E+00
RMM:  19    -0.822480904191E+03   -0.40755E+01   -0.80274E-01 13074   0.121E+00    0.270E+00
RMM:  20    -0.824022244843E+03   -0.15413E+01   -0.34481E-01 13452   0.829E-01    0.164E+00
RMM:  21    -0.824588879026E+03   -0.56663E+00   -0.13999E-01 13706   0.575E-01    0.101E+00
RMM:  22    -0.825249249141E+03   -0.66037E+00   -0.77236E-02 14266   0.354E-01    0.680E-01
RMM:  23    -0.825832099236E+03   -0.58285E+00   -0.32962E-02 13369   0.265E-01    0.593E-01
RMM:  24    -0.826540174224E+03   -0.70807E+00   -0.32462E-02 13216   0.238E-01    0.443E-01
RMM:  25    -0.827147382590E+03   -0.60721E+00   -0.15656E-02 13183   0.199E-01    0.410E-01
RMM:  26    -0.827381944842E+03   -0.23456E+00   -0.45023E-03 13414   0.117E-01    0.219E-01
RMM:  27    -0.827610864132E+03   -0.22892E+00   -0.29133E-03 12947   0.920E-02    0.195E-01
RMM:  28    -0.827810418655E+03   -0.19955E+00   -0.17246E-03 13039   0.638E-02    0.183E-01
RMM:  29    -0.828079375966E+03   -0.26896E+00   -0.28885E-03 12563   0.760E-02    0.143E-01
RMM:  30    -0.828237801143E+03   -0.15843E+00   -0.27696E-03 13124   0.618E-02    0.716E-02
RMM:  31    -0.828284283149E+03   -0.46482E-01   -0.13191E-03 12623   0.413E-02    0.552E-02
RMM:  32    -0.828291193140E+03   -0.69100E-02   -0.28217E-04 12808   0.249E-02    0.456E-02
RMM:  33    -0.828295287346E+03   -0.40942E-02   -0.13664E-04 12857   0.174E-02    0.400E-02
RMM:  34    -0.828296394101E+03   -0.11068E-02   -0.57615E-05 12405   0.141E-02    0.308E-02
RMM:  35    -0.828297368254E+03   -0.97415E-03   -0.63404E-05 12836   0.108E-02    0.190E-02
RMM:  36    -0.828297801861E+03   -0.43361E-03   -0.50546E-05 12201   0.992E-03    0.138E-02
RMM:  37    -0.828297814601E+03   -0.12740E-04   -0.17651E-05 10782   0.670E-03    0.119E-02
RMM:  38    -0.828297882312E+03   -0.67711E-04   -0.83645E-06  9654   0.439E-03    0.913E-03
RMM:  39    -0.828298013685E+03   -0.13137E-03   -0.81239E-06  9292   0.413E-03    0.672E-03
RMM:  40    -0.828298166751E+03   -0.15307E-03   -0.56385E-06  8715   0.329E-03    0.381E-03
RMM:  41    -0.828298386632E+03   -0.21988E-03   -0.36680E-06  8340   0.292E-03    0.447E-03
RMM:  42    -0.828298590753E+03   -0.20412E-03   -0.24639E-06  7855   0.270E-03    0.385E-03
RMM:  43    -0.828298833921E+03   -0.24317E-03   -0.34692E-06  8266   0.235E-03    0.151E-03
RMM:  44    -0.828298946868E+03   -0.11295E-03   -0.12660E-06  7680   0.177E-03    0.187E-03
RMM:  45    -0.828299003413E+03   -0.56546E-04   -0.62591E-07  7394   0.140E-03    0.116E-03
RMM:  46    -0.828299091331E+03   -0.87918E-04   -0.86369E-07  7427   0.122E-03    0.864E-04
RMM:  47    -0.828299120271E+03   -0.28940E-04   -0.54696E-07  7168   0.115E-03    0.637E-04
RMM:  48    -0.828299135188E+03   -0.14917E-04   -0.31016E-07  6921   0.870E-04    0.424E-04
RMM:  49    -0.828299150329E+03   -0.15140E-04   -0.26959E-07  6408   0.759E-04    0.359E-04
RMM:  50    -0.828299159994E+03   -0.96656E-05   -0.27629E-07  5946   0.640E-04    0.270E-04
RMM:  51    -0.828299162097E+03   -0.21023E-05   -0.12715E-07  5328   0.564E-04    0.197E-04
RMM:  52    -0.828299163072E+03   -0.97548E-06   -0.88543E-08  4722   0.419E-04
   1 F= -.83732437E+03 E0= -.83727207E+03  d E =-.837324E+03  mag=     0.0564
 curvature:   0.00 expect dE= 0.000E+00 dE for cont linesearch  0.000E+00
 trial: gam= 0.00000 g(F)=  0.213E-01 g(S)=  0.000E+00 ort = 0.000E+00 (trialstep = 0.100E+01)
 search vector abs. value=  0.213E-01
 bond charge predicted
       N       E                     dE             d eps       ncg     rms          rms(c)
DAV:   1    -0.828294390025E+03    0.47721E-02   -0.22735E+00 12816   0.176E+00    0.116E+00
RMM:   2    -0.828303946525E+03   -0.95565E-02   -0.10412E-01 15003   0.448E-01    0.458E-01
RMM:   3    -0.828319846127E+03   -0.15900E-01   -0.20680E-02 13565   0.293E-01    0.995E-01
RMM:   4    -0.828302505344E+03    0.17341E-01   -0.87796E-03 13092   0.230E-01    0.328E-01
RMM:   5    -0.828300648976E+03    0.18564E-02   -0.18394E-03 13598   0.731E-02    0.166E-01
RMM:   6    -0.828301294174E+03   -0.64520E-03   -0.18250E-03 13658   0.532E-02    0.391E-01
RMM:   7    -0.828299842410E+03    0.14518E-02   -0.60599E-04 12693   0.506E-02    0.120E-01
RMM:   8    -0.828299716908E+03    0.12550E-03   -0.29464E-04 13769   0.298E-02    0.558E-02
RMM:   9    -0.828299669656E+03    0.47252E-04   -0.88133E-05 12043   0.203E-02    0.368E-02
RMM:  10    -0.828299680432E+03   -0.10776E-04   -0.35004E-05 10905   0.117E-02    0.277E-02
RMM:  11    -0.828299732076E+03   -0.51644E-04   -0.21094E-05 10364   0.848E-03    0.122E-02
RMM:  12    -0.828299832796E+03   -0.10072E-03   -0.12101E-05  9887   0.685E-03    0.120E-02
RMM:  13    -0.828299915473E+03   -0.82677E-04   -0.51822E-06  9309   0.454E-03    0.664E-03
RMM:  14    -0.828299995079E+03   -0.79606E-04   -0.23465E-06  7889   0.283E-03    0.363E-03
RMM:  15    -0.828300113364E+03   -0.11828E-03   -0.22590E-06  7787   0.240E-03    0.391E-03
RMM:  16    -0.828300191182E+03   -0.77818E-04   -0.13982E-06  7610   0.197E-03    0.248E-03
RMM:  17    -0.828300293526E+03   -0.10234E-03   -0.15264E-06  7470   0.154E-03    0.196E-03
RMM:  18    -0.828300353472E+03   -0.59946E-04   -0.85316E-07  6933   0.146E-03    0.167E-03
RMM:  19    -0.828300448260E+03   -0.94788E-04   -0.16055E-06  7099   0.127E-03    0.132E-03
RMM:  20    -0.828300512400E+03   -0.64140E-04   -0.11439E-06  7107   0.124E-03    0.110E-03
RMM:  21    -0.828300539573E+03   -0.27173E-04   -0.52550E-07  6506   0.107E-03    0.930E-04
RMM:  22    -0.828300567792E+03   -0.28218E-04   -0.70346E-07  6795   0.914E-04    0.852E-04
RMM:  23    -0.828300583755E+03   -0.15964E-04   -0.43987E-07  6545   0.903E-04    0.616E-04
RMM:  24    -0.828300588919E+03   -0.51633E-05   -0.25989E-07  6010   0.777E-04    0.406E-04
RMM:  25    -0.828300591375E+03   -0.24569E-05   -0.17764E-07  5543   0.652E-04    0.355E-04
RMM:  26    -0.828300593246E+03   -0.18704E-05   -0.14381E-07  5374   0.564E-04    0.322E-04
RMM:  27    -0.828300594496E+03   -0.12500E-05   -0.11880E-07  5246   0.519E-04    0.321E-04
RMM:  28    -0.828300595539E+03   -0.10434E-05   -0.11997E-07  5145   0.478E-04    0.198E-04
RMM:  29    -0.828300596189E+03   -0.65009E-06   -0.73492E-08  4732   0.466E-04
   2 F= -.83732447E+03 E0= -.83727228E+03  d E =-.958089E-04  mag=     0.0332
 trial-energy change:   -0.000096  1 .order   -0.000015   -0.021327    0.021297
 step:   0.5032(harm=  0.5003)  dis= 0.00290  next Energy=  -837.329750 (dE=-0.538E-02)
 bond charge predicted
       N       E                     dE             d eps       ncg     rms          rms(c)
DAV:   1    -0.828303697464E+03   -0.31019E-02   -0.56109E-01 12584   0.876E-01    0.565E-01
RMM:   2    -0.828305976224E+03   -0.22788E-02   -0.25500E-02 15107   0.223E-01    0.210E-01
RMM:   3    -0.828310341360E+03   -0.43651E-02   -0.49958E-03 13436   0.151E-01    0.585E-01
RMM:   4    -0.828305540722E+03    0.48006E-02   -0.18143E-03 13126   0.971E-02    0.150E-01
RMM:   5    -0.828305237719E+03    0.30300E-03   -0.43511E-04 13570   0.341E-02    0.843E-02
RMM:   6    -0.828305205024E+03    0.32695E-04   -0.29433E-04 13422   0.298E-02    0.577E-02
RMM:   7    -0.828305198730E+03    0.62936E-05   -0.15154E-04 12617   0.267E-02    0.499E-02
RMM:   8    -0.828305170104E+03    0.28626E-04   -0.49525E-05 11884   0.152E-02    0.320E-02
RMM:   9    -0.828305125743E+03    0.44362E-04   -0.22200E-05 10179   0.952E-03    0.129E-02
RMM:  10    -0.828305094204E+03    0.31539E-04   -0.10705E-05  9910   0.677E-03    0.118E-02
RMM:  11    -0.828305045505E+03    0.48699E-04   -0.57083E-06  9160   0.441E-03    0.468E-03
RMM:  12    -0.828305026395E+03    0.19110E-04   -0.13274E-06  7621   0.226E-03    0.461E-03
RMM:  13    -0.828305011273E+03    0.15122E-04   -0.11833E-06  7510   0.232E-03    0.463E-03
RMM:  14    -0.828304991554E+03    0.19719E-04   -0.91347E-07  7477   0.180E-03    0.307E-03
RMM:  15    -0.828304977492E+03    0.14062E-04   -0.65275E-07  7297   0.148E-03    0.281E-03
RMM:  16    -0.828304967543E+03    0.99491E-05   -0.69345E-07  6992   0.138E-03    0.213E-03
RMM:  17    -0.828304976019E+03   -0.84763E-05   -0.11692E-06  6689   0.117E-03    0.187E-03
RMM:  18    -0.828304995290E+03   -0.19271E-04   -0.12570E-06  6564   0.121E-03    0.174E-03
RMM:  19    -0.828305016490E+03   -0.21200E-04   -0.75529E-07  6329   0.100E-03    0.113E-03
RMM:  20    -0.828305056114E+03   -0.39623E-04   -0.73012E-07  6003   0.849E-04    0.883E-04
RMM:  21    -0.828305092444E+03   -0.36330E-04   -0.54330E-07  5962   0.807E-04    0.852E-04
RMM:  22    -0.828305133182E+03   -0.40738E-04   -0.76752E-07  6134   0.749E-04    0.654E-04
RMM:  23    -0.828305155547E+03   -0.22365E-04   -0.42246E-07  6077   0.697E-04    0.519E-04
RMM:  24    -0.828305168858E+03   -0.13311E-04   -0.23392E-07  5709   0.604E-04    0.399E-04
RMM:  25    -0.828305185253E+03   -0.16395E-04   -0.31853E-07  5853   0.581E-04    0.346E-04
RMM:  26    -0.828305198424E+03   -0.13171E-04   -0.36409E-07  6060   0.601E-04    0.283E-04
RMM:  27    -0.828305201735E+03   -0.33108E-05   -0.17031E-07  5423   0.591E-04    0.209E-04
RMM:  28    -0.828305203101E+03   -0.13666E-05   -0.11016E-07  4886   0.464E-04    0.119E-04
RMM:  29    -0.828305204294E+03   -0.11924E-05   -0.76858E-08  4574   0.432E-04    0.116E-04
RMM:  30    -0.828305205019E+03   -0.72513E-06   -0.55520E-08  4058   0.376E-04
   3 F= -.83732975E+03 E0= -.83727750E+03  d E =-.537605E-02  mag=     0.0458
 curvature:  -0.25 expect dE=-0.250E-02 dE for cont linesearch -0.635E-08
 trial: gam= 0.47035 g(F)=  0.100E-01 g(S)=  0.000E+00 ort =-0.233E-04 (trialstep = 0.901E+00)
 search vector abs. value=  0.147E-01
 bond charge predicted
       N       E                     dE             d eps       ncg     rms          rms(c)
DAV:   1    -0.828303583458E+03    0.16208E-02   -0.12678E+00 12664   0.971E-01    0.911E-01
RMM:   2    -0.828308913794E+03   -0.53303E-02   -0.59293E-02 14514   0.269E-01    0.247E-01
RMM:   3    -0.828312273995E+03   -0.33602E-02   -0.65809E-03 13879   0.125E-01    0.406E-01
RMM:   4    -0.828309009539E+03    0.32645E-02   -0.19112E-03 13109   0.894E-02    0.249E-01
RMM:   5    -0.828308273849E+03    0.73569E-03   -0.49456E-04 12791   0.401E-02    0.163E-01
RMM:   6    -0.828308355903E+03   -0.82054E-04   -0.92320E-04 13347   0.322E-02    0.220E-01
RMM:   7    -0.828307832001E+03    0.52390E-03   -0.46792E-04 12938   0.379E-02    0.934E-02
RMM:   8    -0.828307738249E+03    0.93752E-04   -0.20752E-04 12757   0.290E-02    0.321E-02
RMM:   9    -0.828307749080E+03   -0.10831E-04   -0.34086E-05 10647   0.109E-02    0.248E-02
RMM:  10    -0.828307744713E+03    0.43677E-05   -0.23593E-05 10465   0.848E-03    0.246E-02
RMM:  11    -0.828307752884E+03   -0.81709E-05   -0.19892E-05 10479   0.744E-03    0.294E-02
RMM:  12    -0.828307768099E+03   -0.15216E-04   -0.61260E-06  9364   0.481E-03    0.108E-02
RMM:  13    -0.828307783807E+03   -0.15708E-04   -0.19243E-06  7782   0.300E-03    0.507E-03
RMM:  14    -0.828307824018E+03   -0.40210E-04   -0.14244E-06  7643   0.196E-03    0.360E-03
RMM:  15    -0.828307876926E+03   -0.52909E-04   -0.97181E-07  7476   0.178E-03    0.306E-03
RMM:  16    -0.828307913119E+03   -0.36193E-04   -0.76642E-07  7251   0.150E-03    0.277E-03
RMM:  17    -0.828307952733E+03   -0.39614E-04   -0.77789E-07  7057   0.123E-03    0.291E-03
RMM:  18    -0.828308003079E+03   -0.50346E-04   -0.82092E-07  7016   0.124E-03    0.301E-03
RMM:  19    -0.828308053144E+03   -0.50064E-04   -0.80554E-07  6467   0.111E-03    0.252E-03
RMM:  20    -0.828308108074E+03   -0.54931E-04   -0.10926E-06  6800   0.979E-04    0.190E-03
RMM:  21    -0.828308152280E+03   -0.44206E-04   -0.87836E-07  6905   0.108E-03    0.175E-03
RMM:  22    -0.828308185116E+03   -0.32836E-04   -0.83601E-07  6760   0.982E-04    0.143E-03
RMM:  23    -0.828308200165E+03   -0.15050E-04   -0.44388E-07  6131   0.808E-04    0.115E-03
RMM:  24    -0.828308210630E+03   -0.10465E-04   -0.31929E-07  5947   0.731E-04    0.951E-04
RMM:  25    -0.828308225477E+03   -0.14847E-04   -0.60390E-07  6264   0.721E-04    0.793E-04
RMM:  26    -0.828308237371E+03   -0.11894E-04   -0.59532E-07  6488   0.804E-04    0.783E-04
RMM:  27    -0.828308244105E+03   -0.67335E-05   -0.39464E-07  6147   0.750E-04    0.637E-04
RMM:  28    -0.828308248344E+03   -0.42396E-05   -0.30009E-07  5389   0.618E-04    0.489E-04
RMM:  29    -0.828308251660E+03   -0.33157E-05   -0.23646E-07  5256   0.573E-04    0.421E-04
RMM:  30    -0.828308254974E+03   -0.33138E-05   -0.25303E-07  4960   0.512E-04    0.385E-04
RMM:  31    -0.828308257024E+03   -0.20502E-05   -0.20068E-07  4685   0.481E-04    0.349E-04
RMM:  32    -0.828308257798E+03   -0.77421E-06   -0.10240E-07  3901   0.435E-04
   4 F= -.83733316E+03 E0= -.83728078E+03  d E =-.340988E-02  mag=     0.0144
 trial-energy change:   -0.003410  1 .order   -0.003340   -0.009004    0.002324
 step:   0.7212(harm=  0.7159)  dis= 0.00248  next Energy=  -837.333391 (dE=-0.364E-02)
 bond charge predicted
       N       E                     dE             d eps       ncg     rms          rms(c)
DAV:   1    -0.828308370260E+03   -0.11324E-03   -0.50336E-02 13144   0.196E-01    0.172E-01
RMM:   2    -0.828308580646E+03   -0.21039E-03   -0.23741E-03 14431   0.546E-02    0.450E-02
RMM:   3    -0.828308743583E+03   -0.16294E-03   -0.24317E-04 13147   0.257E-02    0.108E-01
RMM:   4    -0.828308560726E+03    0.18286E-03   -0.62903E-05 11556   0.150E-02    0.347E-02
RMM:   5    -0.828308557536E+03    0.31902E-05   -0.27357E-05 10638   0.106E-02    0.297E-02
RMM:   6    -0.828308550689E+03    0.68468E-05   -0.42334E-05 11608   0.895E-03    0.128E-02
RMM:   7    -0.828308550181E+03    0.50847E-06   -0.73319E-06  9555   0.616E-03
   5 F= -.83733339E+03 E0= -.83728107E+03  d E =-.363665E-02  mag=     0.0145
 curvature:  -0.53 expect dE=-0.237E-02 dE for cont linesearch -0.757E-06
 trial: gam= 0.44248 g(F)=  0.450E-02 g(S)=  0.000E+00 ort =-0.145E-03 (trialstep = 0.865E+00)
 search vector abs. value=  0.725E-02
 bond charge predicted
       N       E                     dE             d eps       ncg     rms          rms(c)
DAV:   1    -0.828307275582E+03    0.12751E-02   -0.52702E-01 12472   0.708E-01    0.491E-01
RMM:   2    -0.828309922739E+03   -0.26472E-02   -0.25623E-02 14072   0.210E-01    0.221E-01
RMM:   3    -0.828312288389E+03   -0.23657E-02   -0.45225E-03 13228   0.144E-01    0.436E-01
RMM:   4    -0.828309407755E+03    0.28806E-02   -0.18250E-03 13079   0.102E-01    0.129E-01
RMM:   5    -0.828309332126E+03    0.75629E-04   -0.27958E-04 14226   0.213E-02    0.108E-01
RMM:   6    -0.828309279332E+03    0.52794E-04   -0.21480E-04 13496   0.202E-02    0.701E-02
RMM:   7    -0.828309256820E+03    0.22512E-04   -0.21872E-04 13019   0.239E-02    0.384E-02
RMM:   8    -0.828309248066E+03    0.87546E-05   -0.46491E-05 11047   0.162E-02    0.208E-02
RMM:   9    -0.828309244704E+03    0.33620E-05   -0.87151E-06  9841   0.676E-03    0.141E-02
RMM:  10    -0.828309245242E+03   -0.53853E-06   -0.61543E-06  9429   0.516E-03
   6 F= -.83733539E+03 E0= -.83728296E+03  d E =-.200737E-02  mag=     0.0143
 trial-energy change:   -0.002007  1 .order   -0.001959   -0.003836   -0.000082
 step:   0.8823(harm=  0.8837)  dis= 0.00158  next Energy=  -837.335395 (dE=-0.201E-02)
 bond charge predicted
       N       E                     dE             d eps       ncg     rms          rms(c)
DAV:   1    -0.828309217212E+03    0.27492E-04   -0.26668E-04 17144   0.312E-02    0.150E-02
RMM:   2    -0.828309221486E+03   -0.42741E-05   -0.22980E-05 11977   0.731E-03    0.121E-02
RMM:   3    -0.828309222229E+03   -0.74363E-06   -0.74029E-06  9449   0.634E-03
   7 F= -.83733540E+03 E0= -.83728311E+03  d E =-.201098E-02  mag=     0.0142
 curvature:  -0.72 expect dE=-0.400E-02 dE for cont linesearch -0.112E-06
 trial: gam= 1.21411 g(F)=  0.557E-02 g(S)=  0.000E+00 ort = 0.336E-04 (trialstep = 0.385E+00)
 search vector abs. value=  0.163E-01
 bond charge predicted
       N       E                     dE             d eps       ncg     rms          rms(c)
DAV:   1    -0.828309671690E+03   -0.45020E-03   -0.18126E-01 12208   0.387E-01    0.263E-01
RMM:   2    -0.828310478287E+03   -0.80660E-03   -0.91996E-03 13851   0.120E-01    0.872E-02
RMM:   3    -0.828310556456E+03   -0.78168E-04   -0.86029E-04 13661   0.527E-02    0.967E-02
RMM:   4    -0.828310493087E+03    0.63369E-04   -0.24798E-04 12333   0.313E-02    0.692E-02
RMM:   5    -0.828310484314E+03    0.87723E-05   -0.74833E-05 12440   0.151E-02    0.572E-02
RMM:   6    -0.828310464640E+03    0.19674E-04   -0.11360E-04 12615   0.173E-02    0.321E-02
RMM:   7    -0.828310463007E+03    0.16329E-05   -0.45313E-05 11978   0.130E-02    0.156E-02
RMM:   8    -0.828310461886E+03    0.11215E-05   -0.60000E-06  9803   0.490E-03    0.122E-02
RMM:   9    -0.828310460845E+03    0.10404E-05   -0.17896E-06  7637   0.296E-03    0.952E-03
RMM:  10    -0.828310461599E+03   -0.75425E-06   -0.59389E-06  8925   0.372E-03
   8 F= -.83733726E+03 E0= -.83728484E+03  d E =-.186056E-02  mag=     0.0144
 trial-energy change:   -0.001861  1 .order   -0.001834   -0.002161   -0.001508
 step:   0.9453(harm=  1.2754)  dis= 0.00285  next Energy=  -837.338434 (dE=-0.304E-02)
 bond charge predicted
       N       E                     dE             d eps       ncg     rms          rms(c)
DAV:   1    -0.828309470257E+03    0.99059E-03   -0.38418E-01 12380   0.561E-01    0.389E-01
RMM:   2    -0.828311169550E+03   -0.16993E-02   -0.19433E-02 13842   0.174E-01    0.126E-01
RMM:   3    -0.828311323700E+03   -0.15415E-03   -0.18299E-03 13803   0.766E-02    0.138E-01
RMM:   4    -0.828311190930E+03    0.13277E-03   -0.51833E-04 12673   0.442E-02    0.978E-02
RMM:   5    -0.828311180358E+03    0.10572E-04   -0.16344E-04 12890   0.223E-02    0.837E-02
RMM:   6    -0.828311138769E+03    0.41589E-04   -0.20620E-04 13023   0.227E-02    0.546E-02
RMM:   7    -0.828311130249E+03    0.85195E-05   -0.11146E-04 12374   0.202E-02    0.344E-02
RMM:   8    -0.828311118437E+03    0.11812E-04   -0.18026E-05 10850   0.909E-03    0.186E-02
RMM:   9    -0.828311114735E+03    0.37025E-05   -0.43786E-06  9112   0.429E-03    0.134E-02
RMM:  10    -0.828311113363E+03    0.13720E-05   -0.86107E-06  9644   0.501E-03    0.145E-02
RMM:  11    -0.828311109990E+03    0.33731E-05   -0.10494E-05  9694   0.429E-03    0.441E-03
RMM:  12    -0.828311108955E+03    0.10343E-05   -0.14727E-06  7519   0.230E-03    0.294E-03
RMM:  13    -0.828311108485E+03    0.47017E-06   -0.70597E-07  7320   0.204E-03
   9 F= -.83733881E+03 E0= -.83728639E+03  d E =-.340993E-02  mag=     0.0161
 curvature:  -1.60 expect dE=-0.104E-01 dE for cont linesearch -0.241E-03
 ZBRENT: increasing intervall
 opt :   2.0652  next Energy=  -837.337936 (dE=-0.254E-02)
 bond charge predicted
       N       E                     dE             d eps       ncg     rms          rms(c)
DAV:   1    -0.828301905049E+03    0.92039E-02   -0.15328E+00 12148   0.112E+00    0.780E-01
RMM:   2    -0.828308647329E+03   -0.67423E-02   -0.76942E-02 14045   0.332E-01    0.249E-01
RMM:   3    -0.828309418476E+03   -0.77115E-03   -0.65465E-03 14082   0.135E-01    0.302E-01
RMM:   4    -0.828308735846E+03    0.68263E-03   -0.15282E-03 13271   0.662E-02    0.201E-01
RMM:   5    -0.828308667999E+03    0.67847E-04   -0.54704E-04 13361   0.370E-02    0.180E-01
RMM:   6    -0.828308513328E+03    0.15467E-03   -0.93137E-04 13420   0.455E-02    0.125E-01
RMM:   7    -0.828308447424E+03    0.65905E-04   -0.57201E-04 13056   0.450E-02    0.713E-02
RMM:   8    -0.828308394656E+03    0.52767E-04   -0.81739E-05 12822   0.188E-02    0.332E-02
RMM:   9    -0.828308382535E+03    0.12121E-04   -0.20470E-05 10360   0.860E-03    0.286E-02
RMM:  10    -0.828308371741E+03    0.10794E-04   -0.31904E-05 11301   0.921E-03    0.297E-02
RMM:  11    -0.828308344462E+03    0.27279E-04   -0.37531E-05 12063   0.781E-03    0.809E-03
RMM:  12    -0.828308333607E+03    0.10855E-04   -0.55882E-06  9366   0.437E-03    0.526E-03
RMM:  13    -0.828308325560E+03    0.80468E-05   -0.14594E-06  7523   0.227E-03    0.462E-03
RMM:  14    -0.828308316934E+03    0.86265E-05   -0.76757E-07  7412   0.214E-03    0.408E-03
RMM:  15    -0.828308295270E+03    0.21664E-04   -0.94589E-07  7455   0.144E-03    0.365E-03
RMM:  16    -0.828308282489E+03    0.12781E-04   -0.46466E-07  6930   0.125E-03    0.318E-03
RMM:  17    -0.828308269291E+03    0.13198E-04   -0.47259E-07  6640   0.960E-04    0.301E-03
RMM:  18    -0.828308251452E+03    0.17839E-04   -0.64969E-07  6639   0.973E-04    0.291E-03
RMM:  19    -0.828308232577E+03    0.18875E-04   -0.77516E-07  6576   0.974E-04    0.285E-03
RMM:  20    -0.828308182934E+03    0.49643E-04   -0.39833E-06  6746   0.119E-03    0.261E-03
RMM:  21    -0.828308179367E+03    0.35671E-05   -0.11984E-06  6640   0.122E-03    0.232E-03
RMM:  22    -0.828308212629E+03   -0.33262E-04   -0.44768E-07  6164   0.901E-04    0.179E-03
RMM:  23    -0.828308261351E+03   -0.48722E-04   -0.73760E-07  5929   0.738E-04    0.148E-03
RMM:  24    -0.828308297821E+03   -0.36470E-04   -0.10163E-06  6074   0.779E-04    0.106E-03
RMM:  25    -0.828308336020E+03   -0.38198E-04   -0.75704E-07  6128   0.852E-04    0.898E-04
RMM:  26    -0.828308385790E+03   -0.49770E-04   -0.85327E-07  6107   0.719E-04    0.684E-04
RMM:  27    -0.828308438432E+03   -0.52642E-04   -0.12576E-06  6480   0.790E-04    0.634E-04
RMM:  28    -0.828308459036E+03   -0.20604E-04   -0.51113E-07  6255   0.776E-04    0.480E-04
RMM:  29    -0.828308472966E+03   -0.13931E-04   -0.36016E-07  5714   0.625E-04    0.312E-04
RMM:  30    -0.828308480546E+03   -0.75804E-05   -0.21141E-07  5643   0.635E-04    0.268E-04
RMM:  31    -0.828308485282E+03   -0.47357E-05   -0.19519E-07  5531   0.545E-04    0.181E-04
RMM:  32    -0.828308487295E+03   -0.20128E-05   -0.12738E-07  5100   0.538E-04    0.165E-04
RMM:  33    -0.828308488301E+03   -0.10065E-05   -0.82427E-08  4632   0.430E-04    0.124E-04
RMM:  34    -0.828308489171E+03   -0.86991E-06   -0.57044E-08  4178   0.388E-04
  10 F= -.83733799E+03 E0= -.83728564E+03  d E =-.259519E-02  mag=     0.0410
 curvature:   5.80 expect dE= 0.180E+00 dE for cont linesearch  0.350E-02
 ZBRENT: bracketing found
 ZBRENT: interpolating
 opt :   1.3181  next Energy=  -837.339100 (dE=-0.370E-02)
 bond charge predicted
       N       E                     dE             d eps       ncg     rms          rms(c)
DAV:   1    -0.828307925912E+03    0.56239E-03   -0.68161E-01 12616   0.748E-01    0.507E-01
RMM:   2    -0.828310917569E+03   -0.29917E-02   -0.34237E-02 14086   0.220E-01    0.162E-01
RMM:   3    -0.828311183944E+03   -0.26637E-03   -0.29153E-03 13897   0.925E-02    0.182E-01
RMM:   4    -0.828310919012E+03    0.26493E-03   -0.83505E-04 12944   0.557E-02    0.129E-01
RMM:   5    -0.828310885121E+03    0.33891E-04   -0.32294E-04 12959   0.331E-02    0.118E-01
RMM:   6    -0.828310780008E+03    0.10511E-03   -0.34272E-04 13514   0.258E-02    0.624E-02
RMM:   7    -0.828310738858E+03    0.41149E-04   -0.13905E-04 13543   0.143E-02    0.467E-02
RMM:   8    -0.828310717281E+03    0.21577E-04   -0.25907E-05 10690   0.112E-02    0.220E-02
RMM:   9    -0.828310716066E+03    0.12158E-05   -0.81688E-06  9623   0.592E-03    0.186E-02
RMM:  10    -0.828310718448E+03   -0.23824E-05   -0.13021E-05 10362   0.555E-03    0.157E-02
RMM:  11    -0.828310724995E+03   -0.65471E-05   -0.18635E-05 10638   0.420E-03    0.388E-03
RMM:  12    -0.828310731380E+03   -0.63848E-05   -0.12959E-06  7513   0.268E-03    0.303E-03
RMM:  13    -0.828310736609E+03   -0.52289E-05   -0.62887E-07  7367   0.178E-03    0.248E-03
RMM:  14    -0.828310746762E+03   -0.10154E-04   -0.34439E-07  7265   0.121E-03    0.186E-03
RMM:  15    -0.828310761504E+03   -0.14742E-04   -0.37609E-07  6420   0.104E-03    0.170E-03
RMM:  16    -0.828310770138E+03   -0.86335E-05   -0.23734E-07  6390   0.945E-04    0.861E-04
RMM:  17    -0.828310778048E+03   -0.79105E-05   -0.19740E-07  5843   0.597E-04    0.823E-04
RMM:  18    -0.828310784231E+03   -0.61831E-05   -0.12789E-07  5730   0.665E-04    0.781E-04
RMM:  19    -0.828310801659E+03   -0.17427E-04   -0.36735E-07  5492   0.495E-04    0.724E-04
RMM:  20    -0.828310818497E+03   -0.16838E-04   -0.41651E-07  5610   0.610E-04    0.697E-04
RMM:  21    -0.828310827363E+03   -0.88655E-05   -0.22910E-07  5357   0.532E-04    0.418E-04
RMM:  22    -0.828310830511E+03   -0.31482E-05   -0.88300E-08  4885   0.460E-04    0.374E-04
RMM:  23    -0.828310837945E+03   -0.74340E-05   -0.17615E-07  5234   0.439E-04    0.300E-04
RMM:  24    -0.828310843606E+03   -0.56613E-05   -0.18912E-07  5225   0.468E-04    0.200E-04
RMM:  25    -0.828310845350E+03   -0.17444E-05   -0.86136E-08  4466   0.416E-04    0.167E-04
RMM:  26    -0.828310845956E+03   -0.60575E-06   -0.45948E-08  3586   0.360E-04
  11 F= -.83733915E+03 E0= -.83728677E+03  d E =-.374825E-02  mag=     0.0330
 curvature:  -0.48 expect dE=-0.571E-02 dE for cont linesearch -0.373E-07
 trial: gam= 2.15115 g(F)=  0.118E-01 g(S)=  0.000E+00 ort = 0.355E-04 (trialstep = 0.107E+00)
 search vector abs. value=  0.875E-01
 bond charge predicted
       N       E                     dE             d eps       ncg     rms          rms(c)
DAV:   1    -0.828311359898E+03   -0.51455E-03   -0.69862E-02 12648   0.213E-01    0.147E-01
RMM:   2    -0.828311664151E+03   -0.30425E-03   -0.34473E-03 13880   0.590E-02    0.516E-02
RMM:   3    -0.828311709127E+03   -0.44975E-04   -0.26336E-04 14368   0.199E-02    0.623E-02
RMM:   4    -0.828311672503E+03    0.36623E-04   -0.48294E-05 10348   0.812E-03    0.435E-02
RMM:   5    -0.828311665692E+03    0.68117E-05   -0.17768E-05 10287   0.702E-03    0.343E-02
RMM:   6    -0.828311661618E+03    0.40737E-05   -0.22610E-05 10657   0.735E-03    0.230E-02
RMM:   7    -0.828311660152E+03    0.14657E-05   -0.18970E-05 10712   0.529E-03    0.115E-02
RMM:   8    -0.828311659822E+03    0.33000E-06   -0.24133E-06  8142   0.374E-03
  12 F= -.83734038E+03 E0= -.83728801E+03  d E =-.123434E-02  mag=     0.0334
 ZBRENT: can't locate minimum, use default step
 trial-energy change:   -0.001234  1 .order   -0.001245   -0.001268   -0.001223
 step:   0.4269(harm=  2.9851)  dis= 0.00318  next Energy=  -837.356878 (dE=-0.177E-01)
 bond charge predicted
       N       E                     dE             d eps       ncg     rms          rms(c)
DAV:   1    -0.828310977252E+03    0.68290E-03   -0.62895E-01 12532   0.638E-01    0.440E-01
RMM:   2    -0.828313729788E+03   -0.27525E-02   -0.31392E-02 13886   0.180E-01    0.160E-01
RMM:   3    -0.828314338019E+03   -0.60823E-03   -0.26076E-03 15317   0.593E-02    0.239E-01
RMM:   4    -0.828313784246E+03    0.55377E-03   -0.43367E-04 12737   0.221E-02    0.132E-01
RMM:   5    -0.828313704589E+03    0.79657E-04   -0.17119E-04 12790   0.181E-02    0.958E-02
RMM:   6    -0.828313710627E+03   -0.60376E-05   -0.26146E-04 12728   0.229E-02    0.724E-02
RMM:   7    -0.828313685513E+03    0.25113E-04   -0.13793E-04 12934   0.156E-02    0.336E-02
