membrane                                
           1
    26.266500    0.000000    0.000000
   -13.132880   22.749747    0.000000
     0.000000    0.000000   20.201799
   C    Al   S    Cl   Cu
  54   1  54   4  27
Direct configuration=     1
   0.02980496  0.30218825  0.50001190
   0.02984702  0.06202942  0.49999706
   0.27005327  0.30220454  0.50001425
   0.06091442  0.03095775  0.49999875
   0.30100426  0.27100923  0.49998900
   0.30101723  0.03100302  0.49998954
   0.36326080  0.30211553  0.49995164
   0.36326635  0.06214889  0.49995729
   0.60317546  0.30208670  0.50062705
   0.39437732  0.03103252  0.49996159
   0.63430456  0.27097832  0.50062390
   0.63434245  0.03103105  0.49996058
   0.69654801  0.30210167  0.50065734
   0.69655676  0.06213981  0.49995947
   0.93653048  0.30213892  0.49996078
   0.72765502  0.03100362  0.49999230
   0.96764862  0.27101999  0.49999162
   0.96771553  0.03095765  0.49999972
   0.02986284  0.63544604  0.49999470
   0.02987545  0.39543758  0.49999310
   0.26997658  0.63550906  0.49999956
   0.06083963  0.36425758  0.50001184
   0.30104625  0.60443529  0.49999687
   0.30109356  0.36426676  0.50001372
   0.36317889  0.63549390  0.49999863
   0.36323896  0.39544566  0.49999161
   0.60321983  0.63545630  0.49999105
   0.39437600  0.36433365  0.49995419
   0.63431974  0.60431219  0.49995903
   0.63431222  0.36435525  0.50063855
   0.69655679  0.63541359  0.49995997
   0.69659188  0.39550258  0.50065524
   0.93652371  0.63543146  0.49995677
   0.72768629  0.36434007  0.50065568
   0.96761975  0.60431070  0.49995976
   0.96763037  0.36433313  0.49996245
   0.02983389  0.96883150  0.49999616
   0.02981114  0.72863257  0.50001153
   0.27003772  0.96887546  0.50001385
   0.06084327  0.69758479  0.50001169
   0.30108383  0.93783161  0.50001336
   0.30105514  0.69762667  0.49999701
   0.36322143  0.96880249  0.49999586
   0.36318737  0.72869191  0.49999912
   0.60323083  0.96880671  0.49999214
   0.39425482  0.69762621  0.49999650
   0.63438990  0.93782480  0.50001105
   0.63440573  0.69758345  0.50001342
   0.69648066  0.96886790  0.50001161
   0.69648394  0.72861393  0.50001390
   0.93663926  0.96884142  0.49999695
   0.72766969  0.69766451  0.49999213
   0.96769640  0.93775509  0.49999892
   0.96766400  0.69765560  0.49998838
   0.65607527  0.33465825  0.74864599
   0.06789781  0.13814886  0.49997588
   0.19393215  0.26414799  0.49999625
   0.13704584  0.06902603  0.49999856
   0.26301865  0.19497667  0.49996142
   0.26301337  0.06905636  0.49995515
   0.40135176  0.26412065  0.49990235
   0.40135989  0.13823431  0.49989459
   0.52742416  0.26425423  0.50018843
   0.47045991  0.06918534  0.49989570
   0.59640589  0.19519768  0.50012465
   0.59635570  0.06914946  0.49991572
   0.73444316  0.26418171  0.50009226
   0.73451702  0.13823297  0.49990914
   0.86042179  0.26417549  0.49991049
   0.80370196  0.06906489  0.49996637
   0.92958716  0.19497931  0.49996527
   0.92963725  0.06900067  0.49999791
   0.06782482  0.59735480  0.49996786
   0.06783958  0.47146255  0.49996517
   0.19384036  0.59745051  0.49999858
   0.13696564  0.40233265  0.49999475
   0.26295357  0.52829241  0.49997620
   0.26303046  0.40230254  0.49999690
   0.40120046  0.59740347  0.49999987
   0.40127225  0.47146276  0.49996285
   0.52719462  0.59740559  0.49995848
   0.47046916  0.40229789  0.49990465
   0.59635350  0.52819788  0.49989600
   0.59640568  0.40223042  0.50012067
   0.73448205  0.59723582  0.49989609
   0.73446091  0.47127919  0.50016570
   0.86042459  0.59731790  0.49991312
   0.80352197  0.40227414  0.50008947
   0.92947391  0.52821520  0.49990876
   0.92948337  0.40226954  0.49991359
   0.06788396  0.93072166  0.49997486
   0.06783400  0.80472684  0.49999800
   0.19393062  0.93084981  0.49999506
   0.13696062  0.73563927  0.49999569
   0.26302150  0.86173815  0.49999491
   0.26295959  0.73567507  0.49997784
   0.40124387  0.93079140  0.49996233
   0.40122266  0.80480999  0.49999815
   0.52719318  0.93084046  0.49996325
   0.47037223  0.73569212  0.49997596
   0.59632278  0.86172349  0.49999634
   0.59633314  0.73559732  0.49999586
   0.73451651  0.93078330  0.49999652
   0.73452812  0.80471363  0.49999579
   0.86051385  0.93078638  0.49997659
   0.80369543  0.73563161  0.49995936
   0.92962935  0.86164402  0.49999921
   0.92958738  0.73561778  0.49995978
   0.06782153  0.26408928  0.49999493
   0.72144433  0.31736043  0.70470614
   0.67109360  0.41884954  0.71179701
   0.56981433  0.26648659  0.71643373
   0.66072975  0.33525937  0.85637316
   0.49898298  0.33319727  0.50116126
   0.99871892  0.16652881  0.50004281
   0.83204139  0.16664596  0.50021506
   0.83179705  0.33319993  0.50120956
   0.33204764  0.49984044  0.50004443
   0.16541858  0.49990300  0.50004214
   0.16539700  0.66655421  0.50004107
   0.66538434  0.49957043  0.50152001
   0.49882940  0.49984926  0.50024955
   0.49874271  0.66654898  0.50004672
   0.99859546  0.49978963  0.50020338
   0.83182385  0.49966778  0.50097701
   0.83199280  0.66641651  0.50024564
   0.33204970  0.83319539  0.50004536
   0.16542330  0.83324993  0.50004149
   0.16541239  0.99988234  0.50004937
   0.66538182  0.83318667  0.50004119
   0.49876963  0.83325475  0.50004268
   0.49878459  0.00000047  0.50021525
   0.99871742  0.83317891  0.50004455
   0.83208443  0.83323879  0.50004684
   0.83205877  0.99987963  0.50004142
   0.33218440  0.16658317  0.50026914
   0.16543477  0.16659357  0.50004664
   0.16540187  0.33321923  0.50004045
   0.66541539  0.16678633  0.50096592
   0.49899293  0.16686558  0.50136546
Direct configuration=     2
   0.02969903  0.30201528  0.50000696
   0.02986125  0.06204134  0.49999671
   0.26996113  0.30201389  0.50000836
   0.06093631  0.03097398  0.49999852
   0.30123816  0.27117408  0.49998633
   0.30123039  0.03109500  0.49998736
   0.36320299  0.30214448  0.49995774
   0.36321639  0.06206318  0.49996367
   0.60328282  0.30218213  0.50066618
   0.39428491  0.03101680  0.49996814
   0.63435835  0.27106452  0.50066594
   0.63438260  0.03101296  0.49996531
   0.69654003  0.30212616  0.50068054
   0.69650862  0.06206221  0.49996390
   0.93658463  0.30214754  0.49996652
   0.72752004  0.03106896  0.49998966
   0.96760678  0.27117229  0.49998893
   0.96770513  0.03098167  0.49999920
   0.02964771  0.63536294  0.49999090
   0.02965256  0.39527704  0.49998991
   0.26995412  0.63546974  0.49999920
   0.06092924  0.36442222  0.50000722
   0.30101365  0.60440569  0.49999646
   0.30118177  0.36443163  0.50000869
   0.36317715  0.63548017  0.49999839
   0.36330200  0.39527726  0.49998804
   0.60337649  0.63536238  0.49998779
   0.39429491  0.36429399  0.49996040
   0.63438141  0.60437270  0.49996663
   0.63438439  0.36432870  0.50068047
   0.69649277  0.63543638  0.49996729
   0.69650558  0.39537374  0.50068713
   0.93659364  0.63544637  0.49996150
   0.72763861  0.36434771  0.50068888
   0.96766546  0.60439909  0.49996457
   0.96768563  0.36430384  0.49996831
   0.02985028  0.96879141  0.49999582
   0.02971438  0.72868432  0.50000659
   0.26997451  0.96894688  0.50000773
   0.06092027  0.69750967  0.50000786
   0.30114457  0.93777074  0.50000890
   0.30103162  0.69765049  0.49999680
   0.36329512  0.96900590  0.49999157
   0.36319036  0.72871130  0.49999874
   0.60337351  0.96900487  0.49998899
   0.39426400  0.69763229  0.49999605
   0.63426524  0.93777028  0.50000694
   0.63425481  0.69750262  0.50000750
   0.69661282  0.96892389  0.50000727
   0.69664050  0.72870009  0.50000799
   0.93662172  0.96880264  0.49999661
   0.72750447  0.69740801  0.49998899
   0.96769826  0.93776192  0.49999860
   0.96760612  0.69746140  0.49998633
   0.65609952  0.33470144  0.74893149
   0.06788671  0.13813723  0.49997408
   0.19392982  0.26415997  0.49999843
   0.13701875  0.06901420  0.50000219
   0.26298658  0.19494875  0.49996056
   0.26299047  0.06905028  0.49995321
   0.40132538  0.26415183  0.49991001
   0.40132018  0.13816591  0.49990590
   0.52742556  0.26424339  0.50023764
   0.47041094  0.06915048  0.49990679
   0.59640843  0.19520563  0.50017091
   0.59637896  0.06911600  0.49992244
   0.73441136  0.26421703  0.50013610
   0.73448901  0.13817394  0.49991508
   0.86048677  0.26419774  0.49992058
   0.80373280  0.06906856  0.49996511
   0.92958457  0.19495336  0.49996353
   0.92963786  0.06899804  0.50000108
   0.06785756  0.59736243  0.49996697
   0.06787274  0.47150765  0.49996343
   0.19386988  0.59746284  0.50000162
   0.13696441  0.40231920  0.49999638
   0.26297376  0.52832895  0.49997432
   0.26300130  0.40230209  0.49999915
   0.40120977  0.59741014  0.50000388
   0.40128103  0.47151295  0.49996184
   0.52714393  0.59739482  0.49995672
   0.47040342  0.40227133  0.49991212
   0.59639011  0.52829570  0.49990874
   0.59641976  0.40220419  0.50017039
   0.73445540  0.59729130  0.49990882
   0.73443684  0.47123632  0.50021738
   0.86048472  0.59735048  0.49991961
   0.80344224  0.40222667  0.50013383
   0.92951222  0.52827657  0.49991485
   0.92950802  0.40225792  0.49992430
   0.06786920  0.93075148  0.49997285
   0.06785861  0.80475041  0.50000044
   0.19391727  0.93082221  0.49999693
   0.13696660  0.73565803  0.49999772
   0.26299931  0.86171650  0.49999650
   0.26297472  0.73566638  0.49997629
   0.40126192  0.93075996  0.49996088
   0.40121585  0.80479658  0.50000145
   0.52714896  0.93080261  0.49996181
   0.47037109  0.73569099  0.49997414
   0.59632847  0.86170651  0.49999848
   0.59632872  0.73563720  0.49999761
   0.73451172  0.93077355  0.49999873
   0.73451929  0.80473442  0.49999741
   0.86052133  0.93078879  0.49997493
   0.80374049  0.73567422  0.49995776
   0.92963456  0.86165551  0.50000283
   0.92957786  0.73565199  0.49995808
   0.06784876  0.26410814  0.49999673
   0.72136634  0.31739825  0.70465825
   0.67106940  0.41868147  0.71175641
   0.56988229  0.26654981  0.71631339
   0.66074742  0.33528548  0.85545523
   0.49892705  0.33320101  0.50118967
   0.99871663  0.16653407  0.50004596
   0.83203598  0.16664179  0.50022667
   0.83187815  0.33320415  0.50122046
   0.33206063  0.49984930  0.50004752
   0.16540769  0.49989957  0.50004525
   0.16539315  0.66654502  0.50004400
   0.66539546  0.49965035  0.50153863
   0.49882601  0.49984154  0.50026469
   0.49874568  0.66653948  0.50005005
   0.99859683  0.49979446  0.50021480
   0.83189545  0.49973437  0.50099597
   0.83199839  0.66641262  0.50025897
   0.33206037  0.83320899  0.50004874
   0.16541957  0.83324599  0.50004732
   0.16542183  0.99988956  0.50005293
   0.66538623  0.83319066  0.50004718
   0.49876326  0.83325732  0.50004550
   0.49879491  0.00000810  0.50022785
   0.99871400  0.83317854  0.50004754
   0.83208063  0.83322676  0.50005037
   0.83206512  0.99988661  0.50004432
   0.33218939  0.16659242  0.50028248
   0.16543853  0.16658699  0.50005001
   0.16540726  0.33321723  0.50004628
   0.66541924  0.16672794  0.50098738
   0.49893416  0.16679750  0.50138388
Direct configuration=     3
   0.02975166  0.30210121  0.50000941
   0.02985418  0.06203542  0.49999688
   0.27000691  0.30210861  0.50001129
   0.06092543  0.03096592  0.49999863
   0.30112196  0.27109218  0.49998766
   0.30112449  0.03104930  0.49998845
   0.36323171  0.30213010  0.49995471
   0.36324121  0.06210576  0.49996050
   0.60322949  0.30213472  0.50064674
   0.39433082  0.03102461  0.49996489
   0.63433163  0.27102170  0.50064506
   0.63436265  0.03102194  0.49996296
   0.69654400  0.30211399  0.50066901
   0.69653254  0.06210076  0.49996170
   0.93655773  0.30214326  0.49996367
   0.72758710  0.03103650  0.49999097
   0.96762757  0.27109663  0.49999027
   0.96771030  0.03096973  0.49999946
   0.02975458  0.63540422  0.49999279
   0.02976329  0.39535679  0.49999150
   0.26996527  0.63548928  0.49999938
   0.06088472  0.36434043  0.50000952
   0.30102985  0.60442039  0.49999667
   0.30113795  0.36434972  0.50001119
   0.36317801  0.63548699  0.49999851
   0.36327068  0.39536092  0.49998981
   0.60329866  0.63540904  0.49998941
   0.39433520  0.36431369  0.49995732
   0.63435077  0.60434264  0.49996285
   0.63434853  0.36434189  0.50065964
   0.69652458  0.63542506  0.49996365
   0.69654845  0.39543775  0.50067128
   0.93655890  0.63543896  0.49995915
   0.72766230  0.36434391  0.50067238
   0.96764275  0.60435518  0.49996218
   0.96765818  0.36431839  0.49996540
   0.02984214  0.96881133  0.49999599
   0.02976245  0.72865861  0.50000905
   0.27000592  0.96891139  0.50001077
   0.06088202  0.69754699  0.50000976
   0.30111440  0.93780098  0.50001112
   0.30104330  0.69763866  0.49999691
   0.36325851  0.96890485  0.49999370
   0.36318887  0.72870166  0.49999892
   0.60330263  0.96890642  0.49999056
   0.39425944  0.69762927  0.49999627
   0.63432717  0.93779737  0.50000898
   0.63432979  0.69754278  0.50001044
   0.69654716  0.96889607  0.50000942
   0.69656272  0.72865729  0.50001093
   0.93663044  0.96882191  0.49999678
   0.72758655  0.69753544  0.49999055
   0.96769734  0.93775853  0.49999876
   0.96763487  0.69755788  0.49998735
   0.65608747  0.33467998  0.74878966
   0.06789223  0.13814301  0.49997498
   0.19393098  0.26415402  0.49999735
   0.13703221  0.06902008  0.50000039
   0.26300251  0.19496262  0.49996099
   0.26300185  0.06905330  0.49995418
   0.40133849  0.26413634  0.49990621
   0.40133991  0.13819989  0.49990028
   0.52742486  0.26424878  0.50021319
   0.47043527  0.06916780  0.49990128
   0.59640717  0.19520168  0.50014793
   0.59636740  0.06913262  0.49991910
   0.73442716  0.26419948  0.50011432
   0.73450292  0.13820327  0.49991213
   0.86045449  0.26418669  0.49991557
   0.80371748  0.06906674  0.49996574
   0.92958585  0.19496625  0.49996440
   0.92963756  0.06899935  0.49999951
   0.06784130  0.59735864  0.49996741
   0.06785627  0.47148524  0.49996430
   0.19385521  0.59745671  0.50000011
   0.13696502  0.40232588  0.49999557
   0.26296373  0.52831080  0.49997525
   0.26301579  0.40230231  0.49999803
   0.40120515  0.59740683  0.50000189
   0.40127667  0.47148802  0.49996234
   0.52716911  0.59740017  0.49995760
   0.47043608  0.40228453  0.49990841
   0.59637192  0.52824710  0.49990241
   0.59641277  0.40221722  0.50014569
   0.73446864  0.59726374  0.49990249
   0.73444880  0.47125762  0.50019170
   0.86045484  0.59733430  0.49991638
   0.80348185  0.40225025  0.50011179
   0.92949319  0.52824608  0.49991182
   0.92949577  0.40226369  0.49991898
   0.06787654  0.93073667  0.49997385
   0.06784639  0.80473870  0.49999923
   0.19392390  0.93083592  0.49999600
   0.13696363  0.73564871  0.49999671
   0.26301033  0.86172725  0.49999571
   0.26296720  0.73567070  0.49997706
   0.40125295  0.93077558  0.49996160
   0.40121923  0.80480324  0.49999981
   0.52717093  0.93082142  0.49996252
   0.47037165  0.73569155  0.49997504
   0.59632564  0.86171495  0.49999742
   0.59633091  0.73561738  0.49999674
   0.73451410  0.93077840  0.49999763
   0.73452368  0.80472409  0.49999660
   0.86051761  0.93078759  0.49997575
   0.80371811  0.73565305  0.49995856
   0.92963197  0.86164980  0.50000103
   0.92958259  0.73563500  0.49995892
   0.06783523  0.26409877  0.49999584
   0.72140509  0.31737946  0.70468204
   0.67108142  0.41876497  0.71177658
   0.56984853  0.26651840  0.71637318
   0.66073864  0.33527251  0.85591126
   0.49895484  0.33319915  0.50117556
   0.99871777  0.16653145  0.50004439
   0.83203867  0.16664386  0.50022090
   0.83183786  0.33320205  0.50121505
   0.33205418  0.49984490  0.50004598
   0.16541310  0.49990128  0.50004370
   0.16539506  0.66654959  0.50004254
   0.66538993  0.49961065  0.50152938
   0.49882769  0.49984538  0.50025717
   0.49874421  0.66654420  0.50004840
   0.99859615  0.49979206  0.50020912
   0.83185988  0.49970128  0.50098655
   0.83199561  0.66641455  0.50025234
   0.33205507  0.83320223  0.50004706
   0.16542142  0.83324794  0.50004442
   0.16541714  0.99988597  0.50005116
   0.66538404  0.83318867  0.50004420
   0.49876643  0.83325604  0.50004410
   0.49878978  0.00000431  0.50022159
   0.99871570  0.83317872  0.50004606
   0.83208252  0.83323274  0.50004862
   0.83206196  0.99988314  0.50004288
   0.33218691  0.16658782  0.50027585
   0.16543666  0.16659026  0.50004833
   0.16540458  0.33321822  0.50004338
   0.66541733  0.16675695  0.50097672
   0.49896336  0.16683132  0.50137473
Direct configuration=     4
   0.02977558  0.30217544  0.50000313
   0.02984905  0.06203170  0.49999635
   0.27006249  0.30217754  0.50000387
   0.06091898  0.03094798  0.49999852
   0.30112433  0.27109056  0.49998461
   0.30112034  0.03104667  0.49998585
   0.36330324  0.30217158  0.49996233
   0.36329276  0.06213997  0.49996866
   0.60325562  0.30214551  0.50069978
   0.39435081  0.03108172  0.49997289
   0.63435662  0.27105721  0.50069849
   0.63438909  0.03107978  0.49996875
   0.69655185  0.30214405  0.50070343
   0.69649741  0.06212510  0.49996721
   0.93653481  0.30217916  0.49997086
   0.72757637  0.03103108  0.49998795
   0.96761709  0.27109229  0.49998719
   0.96770374  0.03096030  0.49999898
   0.02975633  0.63540685  0.49998863
   0.02976442  0.39535507  0.49998792
   0.26996475  0.63549746  0.49999909
   0.06082661  0.36426687  0.50000347
   0.30102933  0.60441386  0.49999607
   0.30111425  0.36426797  0.50000452
   0.36317003  0.63548224  0.49999838
   0.36327037  0.39535695  0.49998587
   0.60331129  0.63539777  0.49998576
   0.39435906  0.36426588  0.49996492
   0.63438369  0.60430191  0.49997240
   0.63435140  0.36434080  0.50071434
   0.69648866  0.63535051  0.49997293
   0.69654810  0.39541787  0.50071547
   0.93653459  0.63538213  0.49996512
   0.72763375  0.36432176  0.50071540
   0.96758249  0.60432599  0.49996794
   0.96757968  0.36426434  0.49997265
   0.02985147  0.96881896  0.49999547
   0.02977189  0.72860460  0.50000294
   0.27005867  0.96891912  0.50000324
   0.06082291  0.69754555  0.50000451
   0.30111146  0.93785237  0.50000494
   0.30103220  0.69762563  0.49999653
   0.36326096  0.96891676  0.49998899
   0.36317553  0.72869998  0.49999860
   0.60331054  0.96891918  0.49998702
   0.39425164  0.69762476  0.49999561
   0.63438458  0.93784457  0.50000357
   0.63438612  0.69754259  0.50000279
   0.69649839  0.96889221  0.50000387
   0.69650212  0.72859942  0.50000327
   0.93663264  0.96883240  0.49999623
   0.72757188  0.69752170  0.49998701
   0.96770912  0.93775483  0.49999853
   0.96761800  0.69754058  0.49998490
   0.65609632  0.33470674  0.74894292
   0.06788598  0.13813830  0.49997254
   0.19392202  0.26413802  0.50000011
   0.13702004  0.06901725  0.50000515
   0.26301411  0.19497558  0.49995971
   0.26301571  0.06905326  0.49995152
   0.40130305  0.26416990  0.49991635
   0.40129686  0.13812848  0.49991505
   0.52746561  0.26426113  0.50027845
   0.47037048  0.06912691  0.49991582
   0.59642302  0.19523828  0.50020948
   0.59639129  0.06909834  0.49992797
   0.73440240  0.26423217  0.50017158
   0.73447354  0.13813920  0.49991996
   0.86052208  0.26420564  0.49992885
   0.80370722  0.06906997  0.49996397
   0.92958380  0.19497697  0.49996197
   0.92963490  0.06900185  0.50000362
   0.06783531  0.59736249  0.49996605
   0.06784440  0.47148418  0.49996186
   0.19386727  0.59745704  0.50000406
   0.13696867  0.40233526  0.49999765
   0.26297293  0.52832765  0.49997270
   0.26301172  0.40232179  0.50000093
   0.40121459  0.59741304  0.50000712
   0.40128114  0.47148676  0.49996086
   0.52717188  0.59739126  0.49995513
   0.47036240  0.40225618  0.49991832
   0.59640438  0.52833269  0.49991920
   0.59644004  0.40218861  0.50021146
   0.73444519  0.59732083  0.49991916
   0.73440846  0.47118894  0.50025966
   0.86052110  0.59736844  0.49992495
   0.80340739  0.40221209  0.50017033
   0.92953724  0.52831414  0.49991982
   0.92953279  0.40224884  0.49993301
   0.06787319  0.93075301  0.49997114
   0.06784670  0.80475540  0.50000234
   0.19391228  0.93082753  0.49999831
   0.13697025  0.73564885  0.49999933
   0.26300689  0.86170886  0.49999777
   0.26297300  0.73566950  0.49997497
   0.40126915  0.93078895  0.49995953
   0.40121789  0.80480068  0.50000411
   0.52717431  0.93082518  0.49996047
   0.47036929  0.73569007  0.49997257
   0.59631487  0.86170224  0.50000019
   0.59630991  0.73563058  0.49999893
   0.73452992  0.93078416  0.50000046
   0.73453564  0.80474441  0.49999865
   0.86052116  0.93078321  0.49997352
   0.80370898  0.73564300  0.49995632
   0.92963347  0.86165542  0.50000577
   0.92957576  0.73562923  0.49995656
   0.06784123  0.26409537  0.49999813
   0.72131623  0.31742419  0.70460427
   0.67105602  0.41858478  0.71170062
   0.56992948  0.26659466  0.71620640
   0.66077333  0.33530823  0.85496272
   0.49889391  0.33320303  0.50121301
   0.99871611  0.16654069  0.50004855
   0.83203489  0.16663604  0.50023604
   0.83192667  0.33320598  0.50123021
   0.33206867  0.49985383  0.50005010
   0.16539986  0.49989612  0.50004780
   0.16539029  0.66654005  0.50004645
   0.66540223  0.49969891  0.50155441
   0.49882051  0.49983940  0.50027696
   0.49875031  0.66653530  0.50005281
   0.99860392  0.49980132  0.50022404
   0.83193744  0.49977250  0.50101199
   0.83200391  0.66641625  0.50026979
   0.33206758  0.83321951  0.50005152
   0.16541714  0.83324307  0.50005193
   0.16542963  0.99989376  0.50005585
   0.66538948  0.83319514  0.50005190
   0.49876111  0.83325982  0.50004786
   0.49879933  0.00000787  0.50023811
   0.99871283  0.83317807  0.50005005
   0.83207652  0.83321870  0.50005328
   0.83206720  0.99989063  0.50004676
   0.33218734  0.16659660  0.50029337
   0.16544131  0.16658438  0.50005281
   0.16541059  0.33321639  0.50005087
   0.66542166  0.16669283  0.50100534
   0.49889797  0.16675389  0.50139985
Direct configuration=     5
   0.02977082  0.30216065  0.50000438
   0.02985007  0.06203244  0.49999645
   0.27005142  0.30216381  0.50000535
   0.06092027  0.03095156  0.49999854
   0.30112385  0.27109089  0.49998522
   0.30112117  0.03104719  0.49998637
   0.36328899  0.30216332  0.49996081
   0.36328249  0.06213316  0.49996704
   0.60325042  0.30214336  0.50068922
   0.39434683  0.03107035  0.49997129
   0.63435164  0.27105014  0.50068784
   0.63438382  0.03106825  0.49996760
   0.69655029  0.30213806  0.50069658
   0.69650441  0.06212025  0.49996611
   0.93653938  0.30217201  0.49996943
   0.72757851  0.03103216  0.49998855
   0.96761918  0.27109316  0.49998780
   0.96770504  0.03096218  0.49999908
   0.02975598  0.63540633  0.49998946
   0.02976419  0.39535541  0.49998863
   0.26996485  0.63549583  0.49999915
   0.06083819  0.36428153  0.50000467
   0.30102943  0.60441516  0.49999619
   0.30111897  0.36428425  0.50000585
   0.36317162  0.63548318  0.49999841
   0.36327043  0.39535774  0.49998666
   0.60330877  0.63540001  0.49998649
   0.39435431  0.36427541  0.49996341
   0.63437713  0.60431002  0.49997050
   0.63435083  0.36434102  0.50070345
   0.69649581  0.63536536  0.49997108
   0.69654817  0.39542183  0.50070666
   0.93653943  0.63539345  0.49996393
   0.72763944  0.36432617  0.50070683
   0.96759450  0.60433181  0.49996679
   0.96759532  0.36427511  0.49997121
   0.02984961  0.96881744  0.49999557
   0.02977001  0.72861536  0.50000416
   0.27004816  0.96891758  0.50000474
   0.06083469  0.69754583  0.50000556
   0.30111205  0.93784213  0.50000617
   0.30103441  0.69762822  0.49999660
   0.36326047  0.96891438  0.49998993
   0.36317819  0.72870031  0.49999867
   0.60330896  0.96891664  0.49998772
   0.39425319  0.69762566  0.49999574
   0.63437314  0.93783517  0.50000465
   0.63437490  0.69754263  0.50000431
   0.69650811  0.96889298  0.50000497
   0.69651419  0.72861095  0.50000480
   0.93663220  0.96883031  0.49999634
   0.72757480  0.69752444  0.49998771
   0.96770677  0.93775557  0.49999858
   0.96762136  0.69754402  0.49998539
   0.65609456  0.33470141  0.74891238
   0.06788722  0.13813924  0.49997303
   0.19392381  0.26414121  0.49999956
   0.13702247  0.06901781  0.50000420
   0.26301180  0.19497300  0.49995997
   0.26301295  0.06905327  0.49995205
   0.40131011  0.26416322  0.49991433
   0.40130543  0.13814271  0.49991211
   0.52745749  0.26425867  0.50026545
   0.47038339  0.06913506  0.49991292
   0.59641986  0.19523099  0.50019722
   0.59638653  0.06910517  0.49992620
   0.73440733  0.26422566  0.50016017
   0.73447939  0.13815197  0.49991840
   0.86050861  0.26420186  0.49992620
   0.80370927  0.06906933  0.49996432
   0.92958421  0.19497483  0.49996245
   0.92963543  0.06900135  0.50000280
   0.06783650  0.59736173  0.49996632
   0.06784676  0.47148440  0.49996234
   0.19386487  0.59745697  0.50000327
   0.13696794  0.40233339  0.49999724
   0.26297110  0.52832429  0.49997321
   0.26301253  0.40231791  0.50000035
   0.40121271  0.59741180  0.50000608
   0.40128025  0.47148701  0.49996116
   0.52717133  0.59739304  0.49995562
   0.47037708  0.40226183  0.49991635
   0.59639791  0.52831564  0.49991585
   0.59643461  0.40219431  0.50019836
   0.73444986  0.59730945  0.49991584
   0.73441649  0.47120262  0.50024612
   0.86050790  0.59736164  0.49992324
   0.80342223  0.40221969  0.50015866
   0.92952846  0.52830058  0.49991823
   0.92952542  0.40225180  0.49993021
   0.06787385  0.93074975  0.49997168
   0.06784664  0.80475207  0.50000172
   0.19391459  0.93082920  0.49999785
   0.13696893  0.73564882  0.49999881
   0.26300758  0.86171252  0.49999736
   0.26297185  0.73566973  0.49997539
   0.40126592  0.93078629  0.49995994
   0.40121815  0.80480119  0.50000326
   0.52717363  0.93082443  0.49996088
   0.47036976  0.73569036  0.49997307
   0.59631702  0.86170477  0.49999964
   0.59631409  0.73562795  0.49999849
   0.73452677  0.93078302  0.49999990
   0.73453325  0.80474036  0.49999824
   0.86052045  0.93078408  0.49997397
   0.80371080  0.73564500  0.49995676
   0.92963317  0.86165430  0.50000483
   0.92957712  0.73563038  0.49995703
   0.06784003  0.26409605  0.49999767
   0.72133394  0.31741528  0.70461977
   0.67106108  0.41862068  0.71171576
   0.56991335  0.26657947  0.71623963
   0.66076642  0.33530111  0.85515170
   0.49890605  0.33320226  0.50120554
   0.99871644  0.16653885  0.50004772
   0.83203564  0.16663760  0.50023303
   0.83190897  0.33320520  0.50122719
   0.33206579  0.49985205  0.50004928
   0.16540249  0.49989715  0.50004698
   0.16539124  0.66654195  0.50004567
   0.66539978  0.49968133  0.50154942
   0.49882194  0.49984059  0.50027301
   0.49874910  0.66653707  0.50005193
   0.99860237  0.49979947  0.50022107
   0.83192199  0.49975831  0.50100692
   0.83200225  0.66641591  0.50026631
   0.33206509  0.83321607  0.50005063
   0.16541799  0.83324404  0.50005043
   0.16542714  0.99989221  0.50005492
   0.66538840  0.83319385  0.50005037
   0.49876217  0.83325907  0.50004711
   0.49879743  0.00000716  0.50023482
   0.99871340  0.83317820  0.50004925
   0.83207772  0.83322150  0.50005235
   0.83206615  0.99988914  0.50004599
   0.33218726  0.16659486  0.50028988
   0.16544039  0.16658555  0.50005192
   0.16540939  0.33321675  0.50004938
   0.66542080  0.16670560  0.50099964
   0.49891100  0.16676931  0.50139485
Direct configuration=     6
   0.02974571  0.30213427  0.49999827
   0.02983972  0.06201519  0.49999574
   0.27005213  0.30214311  0.49999826
   0.06090790  0.03095836  0.49999869
   0.30109397  0.27107365  0.49998268
   0.30108946  0.03103606  0.49998402
   0.36325281  0.30210187  0.49996801
   0.36325132  0.06214904  0.49997507
   0.60321555  0.30211465  0.50074778
   0.39436660  0.03104253  0.49997865
   0.63434056  0.27102362  0.50074165
   0.63433574  0.03103704  0.49997287
   0.69654355  0.30212029  0.50073961
   0.69654886  0.06213521  0.49997130
   0.93652224  0.30211803  0.49997633
   0.72759499  0.03102469  0.49998603
   0.96764078  0.27108113  0.49998529
   0.96771046  0.03096217  0.49999890
   0.02978075  0.63541459  0.49998636
   0.02978016  0.39536788  0.49998582
   0.26997487  0.63549695  0.49999911
   0.06083397  0.36430441  0.49999851
   0.30103914  0.60443577  0.49999545
   0.30113893  0.36431301  0.49999891
   0.36317415  0.63548802  0.49999855
   0.36324978  0.39537428  0.49998370
   0.60328092  0.63541739  0.49998368
   0.39437202  0.36433658  0.49997040
   0.63432487  0.60429663  0.49997964
   0.63433503  0.36434590  0.50076072
   0.69655404  0.63540368  0.49998008
   0.69655816  0.39545142  0.50075739
   0.93651902  0.63542189  0.49996966
   0.72765233  0.36433101  0.50075154
   0.96763022  0.60431439  0.49997189
   0.96763428  0.36433780  0.49997804
   0.02983610  0.96882238  0.49999490
   0.02974696  0.72861612  0.49999851
   0.27004421  0.96892082  0.49999782
   0.06083340  0.69753536  0.49999985
   0.30112812  0.93784338  0.49999934
   0.30104138  0.69762453  0.49999603
   0.36324843  0.96888175  0.49998648
   0.36317157  0.72868523  0.49999863
   0.60328649  0.96888198  0.49998496
   0.39423917  0.69762327  0.49999495
   0.63435640  0.93783499  0.49999912
   0.63435244  0.69752606  0.49999666
   0.69652084  0.96890755  0.49999952
   0.69651980  0.72860626  0.49999718
   0.93664369  0.96882774  0.49999561
   0.72759925  0.69756325  0.49998489
   0.96770511  0.93776425  0.49999865
   0.96763665  0.69757975  0.49998320
   0.65606503  0.33468097  0.74868686
   0.06788395  0.13813538  0.49997047
   0.19394240  0.26413838  0.50000216
   0.13702504  0.06901921  0.50000926
   0.26304309  0.19501177  0.49995845
   0.26303734  0.06905202  0.49994911
   0.40132244  0.26415618  0.49992535
   0.40131077  0.13816300  0.49992780
   0.52748817  0.26426807  0.50033494
   0.47039128  0.06913626  0.49992837
   0.59643838  0.19526579  0.50026305
   0.59637410  0.06911546  0.49993578
   0.73441095  0.26423687  0.50021940
   0.73448741  0.13816674  0.49992684
   0.86048718  0.26418173  0.49994023
   0.80366904  0.06906135  0.49996229
   0.92959035  0.19501000  0.49995972
   0.92963199  0.06900411  0.50000713
   0.06781384  0.59737199  0.49996461
   0.06781119  0.47144146  0.49995957
   0.19385786  0.59744973  0.50000744
   0.13694850  0.40233008  0.49999925
   0.26296635  0.52831483  0.49997053
   0.26303122  0.40231278  0.50000315
   0.40121837  0.59741709  0.50001159